Sconfig 0.00000 tap: on snoop: rts? on errs? on
Sconfig 0.00000 salvage: on !bd replies? on
Sconfig 0.00000 grat error: on grat reply: on
Sconfig 0.00000 $reply for props: on ring 0 search: on
Sconfig 0.00000 using MOBICACHE
M 0.00000 0 (0.00, 0.00, 0.00), (100.00, 100.00), 3000.00
M 0.00000 1 (0.00, 0.00, 0.00), (200.00, 200.00), 3000.00
M 0.00000 2 (0.00, 0.00, 0.00), (300.00, 200.00), 3000.00
M 0.00000 3 (0.00, 0.00, 0.00), (400.00, 300.00), 3000.00
M 0.00000 4 (0.00, 0.00, 0.00), (500.00, 300.00), 3000.00
M 0.00000 5 (0.00, 0.00, 0.00), (600.00, 400.00), 3000.00
r 1.000000000 _0_ RTR  --- 0 cbr 1000 [0 0 0 0] ------- [0:2 5:0 32 0] [0] 0 0
s 1.004599737 _0_ RTR  --- 1 DSR 32 [0 0 0 0] ------- [0:255 5:255 32 0] 1 [1 1] [0 1 0 0->0] [0 0 0 0->0]
s 1.004674737 _0_ MAC  --- 1 DSR 90 [0 ffffffff 0 800] ------- [0:255 5:255 32 0] 1 [1 1] [0 1 0 0->0] [0 0 0 0->0]
r 1.005395209 _1_ MAC  --- 1 DSR 32 [0 ffffffff 0 800] ------- [0:255 5:255 32 0] 1 [1 1] [0 1 0 0->0] [0 0 0 0->0]
r 1.005395483 _2_ MAC  --- 1 DSR 32 [0 ffffffff 0 800] ------- [0:255 5:255 32 0] 1 [1 1] [0 1 0 0->0] [0 0 0 0->0]
r 1.005420209 _1_ RTR  --- 1 DSR 32 [0 ffffffff 0 800] ------- [0:255 5:255 32 0] 1 [1 1] [0 1 0 0->0] [0 0 0 0->0]
r 1.005420483 _2_ RTR  --- 1 DSR 32 [0 ffffffff 0 800] ------- [0:255 5:255 32 0] 1 [1 1] [0 1 0 0->0] [0 0 0 0->0]
r 1.015000000 _0_ RTR  --- 2 cbr 1000 [0 0 0 0] ------- [0:2 5:0 32 0] [1] 0 0
r 1.030000000 _0_ RTR  --- 4 cbr 1000 [0 0 0 0] ------- [0:2 5:0 32 0] [2] 0 0
s 1.042603267 _0_ RTR  --- 6 DSR 32 [0 0 0 0] ------- [0:255 5:255 32 0] 1 [1 2] [0 2 0 0->0] [0 0 0 0->0]
s 1.043178267 _0_ MAC  --- 6 DSR 90 [0 ffffffff 0 800] ------- [0:255 5:255 32 0] 1 [1 2] [0 2 0 0->0] [0 0 0 0->0]
r 1.043898739 _1_ MAC  --- 6 DSR 32 [0 ffffffff 0 800] ------- [0:255 5:255 32 0] 1 [1 2] [0 2 0 0->0] [0 0 0 0->0]
r 1.043899013 _2_ MAC  --- 6 DSR 32 [0 ffffffff 0 800] ------- [0:255 5:255 32 0] 1 [1 2] [0 2 0 0->0] [0 0 0 0->0]
r 1.043923739 _1_ RTR  --- 6 DSR 32 [0 ffffffff 0 800] ------- [0:255 5:255 32 0] 1 [1 2] [0 2 0 0->0] [0 0 0 0->0]
r 1.043924013 _2_ RTR  --- 6 DSR 32 [0 ffffffff 0 800] ------- [0:255 5:255 32 0] 1 [1 2] [0 2 0 0->0] [0 0 0 0->0]
r 1.045000000 _0_ RTR  --- 9 cbr 1000 [0 0 0 0] ------- [0:2 5:0 32 0] [3] 0 0
f 1.051221887 _2_ RTR  --- 6 DSR 48 [0 ffffffff 0 800] ------- [0:255 5:255 32 0] 2 [1 2] [0 2 0 0->0] [0 0 0 0->0]
s 1.051336887 _2_ MAC  --- 6 DSR 106 [0 ffffffff 2 800] ------- [0:255 5:255 32 0] 2 [1 2] [0 2 0 0->0] [0 0 0 0->0]
r 1.052185220 _1_ MAC  --- 6 DSR 48 [0 ffffffff 2 800] ------- [0:255 5:255 32 0] 2 [1 2] [0 2 0 0->0] [0 0 0 0->0]
r 1.052185358 _3_ MAC  --- 6 DSR 48 [0 ffffffff 2 800] ------- [0:255 5:255 32 0] 2 [1 2] [0 2 0 0->0] [0 0 0 0->0]
r 1.052185632 _0_ MAC  --- 6 DSR 48 [0 ffffffff 2 800] ------- [0:255 5:255 32 0] 2 [1 2] [0 2 0 0->0] [0 0 0 0->0]
r 1.052185632 _4_ MAC  --- 6 DSR 48 [0 ffffffff 2 800] ------- [0:255 5:255 32 0] 2 [1 2] [0 2 0 0->0] [0 0 0 0->0]
r 1.052210220 _1_ RTR  --- 6 DSR 48 [0 ffffffff 2 800] ------- [0:255 5:255 32 0] 2 [1 2] [0 2 0 0->0] [0 0 0 0->0]
r 1.052210358 _3_ RTR  --- 6 DSR 48 [0 ffffffff 2 800] ------- [0:255 5:255 32 0] 2 [1 2] [0 2 0 0->0] [0 0 0 0->0]
r 1.052210632 _0_ RTR  --- 6 DSR 48 [0 ffffffff 2 800] ------- [0:255 5:255 32 0] 2 [1 2] [0 2 0 0->0] [0 0 0 0->0]
r 1.052210632 _4_ RTR  --- 6 DSR 48 [0 ffffffff 2 800] ------- [0:255 5:255 32 0] 2 [1 2] [0 2 0 0->0] [0 0 0 0->0]
f 1.052733535 _1_ RTR  --- 6 DSR 48 [0 ffffffff 0 800] ------- [0:255 5:255 32 0] 2 [1 2] [0 2 0 0->0] [0 0 0 0->0]
s 1.052888535 _1_ MAC  --- 6 DSR 106 [0 ffffffff 1 800] ------- [0:255 5:255 32 0] 2 [1 2] [0 2 0 0->0] [0 0 0 0->0]
r 1.053736868 _2_ MAC  --- 6 DSR 48 [0 ffffffff 1 800] ------- [0:255 5:255 32 0] 2 [1 2] [0 2 0 0->0] [0 0 0 0->0]
r 1.053737006 _0_ MAC  --- 6 DSR 48 [0 ffffffff 1 800] ------- [0:255 5:255 32 0] 2 [1 2] [0 2 0 0->0] [0 0 0 0->0]
r 1.053737280 _3_ MAC  --- 6 DSR 48 [0 ffffffff 1 800] ------- [0:255 5:255 32 0] 2 [1 2] [0 2 0 0->0] [0 0 0 0->0]
r 1.053761868 _2_ RTR  --- 6 DSR 48 [0 ffffffff 1 800] ------- [0:255 5:255 32 0] 2 [1 2] [0 2 0 0->0] [0 0 0 0->0]
r 1.053762006 _0_ RTR  --- 6 DSR 48 [0 ffffffff 1 800] ------- [0:255 5:255 32 0] 2 [1 2] [0 2 0 0->0] [0 0 0 0->0]
r 1.053762280 _3_ RTR  --- 6 DSR 48 [0 ffffffff 1 800] ------- [0:255 5:255 32 0] 2 [1 2] [0 2 0 0->0] [0 0 0 0->0]
f 1.054269183 _3_ RTR  --- 6 DSR 68 [0 ffffffff 2 800] ------- [0:255 5:255 32 0] 3 [1 2] [0 2 0 0->0] [0 0 0 0->0]
s 1.054684183 _3_ MAC  --- 6 DSR 126 [0 ffffffff 3 800] ------- [0:255 5:255 32 0] 3 [1 2] [0 2 0 0->0] [0 0 0 0->0]
r 1.055692516 _4_ MAC  --- 6 DSR 68 [0 ffffffff 3 800] ------- [0:255 5:255 32 0] 3 [1 2] [0 2 0 0->0] [0 0 0 0->0]
r 1.055692654 _2_ MAC  --- 6 DSR 68 [0 ffffffff 3 800] ------- [0:255 5:255 32 0] 3 [1 2] [0 2 0 0->0] [0 0 0 0->0]
r 1.055692928 _1_ MAC  --- 6 DSR 68 [0 ffffffff 3 800] ------- [0:255 5:255 32 0] 3 [1 2] [0 2 0 0->0] [0 0 0 0->0]
r 1.055692928 _5_ MAC  --- 6 DSR 68 [0 ffffffff 3 800] ------- [0:255 5:255 32 0] 3 [1 2] [0 2 0 0->0] [0 0 0 0->0]
r 1.055717516 _4_ RTR  --- 6 DSR 68 [0 ffffffff 3 800] ------- [0:255 5:255 32 0] 3 [1 2] [0 2 0 0->0] [0 0 0 0->0]
r 1.055717654 _2_ RTR  --- 6 DSR 68 [0 ffffffff 3 800] ------- [0:255 5:255 32 0] 3 [1 2] [0 2 0 0->0] [0 0 0 0->0]
r 1.055717928 _1_ RTR  --- 6 DSR 68 [0 ffffffff 3 800] ------- [0:255 5:255 32 0] 3 [1 2] [0 2 0 0->0] [0 0 0 0->0]
r 1.055717928 _5_ RTR  --- 6 DSR 68 [0 ffffffff 3 800] ------- [0:255 5:255 32 0] 3 [1 2] [0 2 0 0->0] [0 0 0 0->0]
f 1.058964408 _4_ RTR  --- 6 DSR 68 [0 ffffffff 2 800] ------- [0:255 5:255 32 0] 3 [1 2] [0 2 0 0->0] [0 0 0 0->0]
s 1.059079408 _4_ MAC  --- 6 DSR 126 [0 ffffffff 4 800] ------- [0:255 5:255 32 0] 3 [1 2] [0 2 0 0->0] [0 0 0 0->0]
r 1.060000000 _0_ RTR  --- 12 cbr 1000 [0 0 0 0] ------- [0:2 5:0 32 0] [4] 0 0
r 1.060087741 _3_ MAC  --- 6 DSR 68 [0 ffffffff 4 800] ------- [0:255 5:255 32 0] 3 [1 2] [0 2 0 0->0] [0 0 0 0->0]
r 1.060087879 _5_ MAC  --- 6 DSR 68 [0 ffffffff 4 800] ------- [0:255 5:255 32 0] 3 [1 2] [0 2 0 0->0] [0 0 0 0->0]
r 1.060088153 _2_ MAC  --- 6 DSR 68 [0 ffffffff 4 800] ------- [0:255 5:255 32 0] 3 [1 2] [0 2 0 0->0] [0 0 0 0->0]
r 1.060112741 _3_ RTR  --- 6 DSR 68 [0 ffffffff 4 800] ------- [0:255 5:255 32 0] 3 [1 2] [0 2 0 0->0] [0 0 0 0->0]
r 1.060112879 _5_ RTR  --- 6 DSR 68 [0 ffffffff 4 800] ------- [0:255 5:255 32 0] 3 [1 2] [0 2 0 0->0] [0 0 0 0->0]
r 1.060113153 _2_ RTR  --- 6 DSR 68 [0 ffffffff 4 800] ------- [0:255 5:255 32 0] 3 [1 2] [0 2 0 0->0] [0 0 0 0->0]
s 1.061777374 _5_ RTR  --- 14 DSR 60 [0 0 0 0] ------- [5:255 0:255 254 4] 4 [0 2] [1 2 4 0->5] [0 0 0 0->0]
s 1.062272345 _5_ RTR  --- 11 DSR 60 [0 0 0 0] ------- [5:255 0:255 254 3] 4 [0 2] [1 2 4 0->5] [0 0 0 0->0]
s 1.062432374 _5_ MAC  --- 0 ARP 86 [0 ffffffff 5 806] ------- [REQUEST 5/5 0/4]
r 1.063120845 _4_ MAC  --- 0 ARP 28 [0 ffffffff 5 806] ------- [REQUEST 5/5 0/4]
r 1.063121119 _3_ MAC  --- 0 ARP 28 [0 ffffffff 5 806] ------- [REQUEST 5/5 0/4]
s 1.063170374 _5_ MAC  --- 0 ARP 86 [0 ffffffff 5 806] ------- [REQUEST 5/5 0/3]
r 1.063858845 _4_ MAC  --- 0 ARP 28 [0 ffffffff 5 806] ------- [REQUEST 5/5 0/3]
r 1.063859119 _3_ MAC  --- 0 ARP 28 [0 ffffffff 5 806] ------- [REQUEST 5/5 0/3]
s 1.064294119 _3_ MAC  --- 0 RTS 44 [52e 5 3 0] 
r 1.064646865 _5_ MAC  --- 0 RTS 44 [52e 5 3 0] 
s 1.064656865 _5_ MAC  --- 0 CTS 38 [3f4 3 0 0] 
r 1.064961610 _3_ MAC  --- 0 CTS 38 [3f4 3 0 0] 
s 1.064971610 _3_ MAC  --- 0 ARP 86 [13a 5 3 806] ------- [REPLY 3/3 5/5]
r 1.065660355 _5_ MAC  --- 0 ARP 28 [13a 5 3 806] ------- [REPLY 3/3 5/5]
s 1.065670355 _5_ MAC  --- 0 ACK 38 [0 3 0 0] 
r 1.065975101 _3_ MAC  --- 0 ACK 38 [0 3 0 0] 
s 1.066084355 _5_ MAC  --- 0 RTS 44 [62e 3 5 0] 
r 1.066437101 _3_ MAC  --- 0 RTS 44 [62e 3 5 0] 
s 1.066447101 _3_ MAC  --- 0 CTS 38 [4f4 5 0 0] 
r 1.066751846 _5_ MAC  --- 0 CTS 38 [4f4 5 0 0] 
s 1.066761846 _5_ MAC  --- 11 DSR 118 [13a 3 5 800] ------- [5:255 0:255 254 3] 4 [0 2] [1 2 4 0->5] [0 0 0 0->0]
r 1.067706591 _3_ MAC  --- 11 DSR 60 [13a 3 5 800] ------- [5:255 0:255 254 3] 4 [0 2] [1 2 4 0->5] [0 0 0 0->0]
s 1.067716591 _3_ MAC  --- 0 ACK 38 [0 5 0 0] 
r 1.067731591 _3_ RTR  --- 11 DSR 60 [13a 3 5 800] ------- [5:255 0:255 254 3] 4 [0 2] [1 2 4 0->5] [0 0 0 0->0]
f 1.067731591 _3_ RTR  --- 11 DSR 60 [13a 3 5 800] ------- [5:255 0:255 253 2] 4 [0 2] [1 2 4 0->5] [0 0 0 0->0]
r 1.068021337 _5_ MAC  --- 0 ACK 38 [0 5 0 0] 
s 1.068210925 _4_ MAC  --- 0 RTS 44 [52e 5 4 0] 
r 1.068563396 _5_ MAC  --- 0 RTS 44 [52e 5 4 0] 
s 1.068573396 _5_ MAC  --- 0 CTS 38 [3f4 4 0 0] 
r 1.068877868 _4_ MAC  --- 0 CTS 38 [3f4 4 0 0] 
s 1.068887868 _4_ MAC  --- 0 ARP 86 [13a 5 4 806] ------- [REPLY 4/4 5/5]
r 1.069576339 _5_ MAC  --- 0 ARP 28 [13a 5 4 806] ------- [REPLY 4/4 5/5]
s 1.069586339 _5_ MAC  --- 0 ACK 38 [0 4 0 0] 
r 1.069890810 _4_ MAC  --- 0 ACK 38 [0 4 0 0] 
s 1.069940339 _5_ MAC  --- 0 RTS 44 [62e 4 5 0] 
r 1.070292810 _4_ MAC  --- 0 RTS 44 [62e 4 5 0] 
s 1.070302810 _4_ MAC  --- 0 CTS 38 [4f4 5 0 0] 
r 1.070607282 _5_ MAC  --- 0 CTS 38 [4f4 5 0 0] 
s 1.070617282 _5_ MAC  --- 14 DSR 118 [13a 4 5 800] ------- [5:255 0:255 254 4] 4 [0 2] [1 2 4 0->5] [0 0 0 0->0]
r 1.071561753 _4_ MAC  --- 14 DSR 60 [13a 4 5 800] ------- [5:255 0:255 254 4] 4 [0 2] [1 2 4 0->5] [0 0 0 0->0]
s 1.071571753 _4_ MAC  --- 0 ACK 38 [0 5 0 0] 
r 1.071586753 _4_ RTR  --- 14 DSR 60 [13a 4 5 800] ------- [5:255 0:255 254 4] 4 [0 2] [1 2 4 0->5] [0 0 0 0->0]
f 1.071586753 _4_ RTR  --- 14 DSR 60 [13a 4 5 800] ------- [5:255 0:255 253 2] 4 [0 2] [1 2 4 0->5] [0 0 0 0->0]
r 1.071876225 _5_ MAC  --- 0 ACK 38 [0 5 0 0] 
s 1.072005753 _4_ MAC  --- 0 ARP 86 [0 ffffffff 4 806] ------- [REQUEST 4/4 0/2]
r 1.072694087 _3_ MAC  --- 0 ARP 28 [0 ffffffff 4 806] ------- [REQUEST 4/4 0/2]
r 1.072694225 _5_ MAC  --- 0 ARP 28 [0 ffffffff 4 806] ------- [REQUEST 4/4 0/2]
r 1.072694499 _2_ MAC  --- 0 ARP 28 [0 ffffffff 4 806] ------- [REQUEST 4/4 0/2]
s 1.072804087 _3_ MAC  --- 0 ARP 86 [0 ffffffff 3 806] ------- [REQUEST 3/3 0/2]
r 1.073492420 _4_ MAC  --- 0 ARP 28 [0 ffffffff 3 806] ------- [REQUEST 3/3 0/2]
r 1.073492558 _2_ MAC  --- 0 ARP 28 [0 ffffffff 3 806] ------- [REQUEST 3/3 0/2]
r 1.073492832 _1_ MAC  --- 0 ARP 28 [0 ffffffff 3 806] ------- [REQUEST 3/3 0/2]
r 1.073492832 _5_ MAC  --- 0 ARP 28 [0 ffffffff 3 806] ------- [REQUEST 3/3 0/2]
s 1.073842558 _2_ MAC  --- 0 RTS 44 [52e 4 2 0] 
r 1.074195303 _4_ MAC  --- 0 RTS 44 [52e 4 2 0] 
s 1.074205303 _4_ MAC  --- 0 CTS 38 [3f4 2 0 0] 
r 1.074510049 _2_ MAC  --- 0 CTS 38 [3f4 2 0 0] 
s 1.074520049 _2_ MAC  --- 0 ARP 86 [13a 4 2 806] ------- [REPLY 2/2 4/4]
r 1.075000000 _0_ RTR  --- 20 cbr 1000 [0 0 0 0] ------- [0:2 5:0 32 0] [5] 0 0
r 1.075208794 _4_ MAC  --- 0 ARP 28 [13a 4 2 806] ------- [REPLY 2/2 4/4]
s 1.075218794 _4_ MAC  --- 0 ACK 38 [0 2 0 0] 
r 1.075523539 _2_ MAC  --- 0 ACK 38 [0 2 0 0] 
s 1.075672794 _4_ MAC  --- 0 RTS 44 [62e 2 4 0] 
r 1.076025539 _2_ MAC  --- 0 RTS 44 [62e 2 4 0] 
s 1.076035539 _2_ MAC  --- 0 CTS 38 [4f4 4 0 0] 
r 1.076340285 _4_ MAC  --- 0 CTS 38 [4f4 4 0 0] 
s 1.076350285 _4_ MAC  --- 14 DSR 118 [13a 2 4 800] ------- [5:255 0:255 253 2] 4 [0 2] [1 2 4 0->5] [0 0 0 0->0]
r 1.077295030 _2_ MAC  --- 14 DSR 60 [13a 2 4 800] ------- [5:255 0:255 253 2] 4 [0 2] [1 2 4 0->5] [0 0 0 0->0]
s 1.077305030 _2_ MAC  --- 0 ACK 38 [0 4 0 0] 
r 1.077320030 _2_ RTR  --- 14 DSR 60 [13a 2 4 800] ------- [5:255 0:255 253 2] 4 [0 2] [1 2 4 0->5] [0 0 0 0->0]
f 1.077320030 _2_ RTR  --- 14 DSR 60 [13a 2 4 800] ------- [5:255 0:255 252 0] 4 [0 2] [1 2 4 0->5] [0 0 0 0->0]
r 1.077609775 _4_ MAC  --- 0 ACK 38 [0 4 0 0] 
s 1.077939030 _2_ MAC  --- 0 RTS 44 [52e 3 2 0] 
r 1.078291501 _3_ MAC  --- 0 RTS 44 [52e 3 2 0] 
s 1.078301501 _3_ MAC  --- 0 CTS 38 [3f4 2 0 0] 
r 1.078605973 _2_ MAC  --- 0 CTS 38 [3f4 2 0 0] 
s 1.078615973 _2_ MAC  --- 0 ARP 86 [13a 3 2 806] ------- [REPLY 2/2 3/3]
r 1.079304444 _3_ MAC  --- 0 ARP 28 [13a 3 2 806] ------- [REPLY 2/2 3/3]
s 1.079314444 _3_ MAC  --- 0 ACK 38 [0 2 0 0] 
r 1.079618916 _2_ MAC  --- 0 ACK 38 [0 2 0 0] 
s 1.079888444 _3_ MAC  --- 0 RTS 44 [62e 2 3 0] 
r 1.080240916 _2_ MAC  --- 0 RTS 44 [62e 2 3 0] 
s 1.080250916 _2_ MAC  --- 0 CTS 38 [4f4 3 0 0] 
r 1.080555387 _3_ MAC  --- 0 CTS 38 [4f4 3 0 0] 
s 1.080565387 _3_ MAC  --- 11 DSR 118 [13a 2 3 800] ------- [5:255 0:255 253 2] 4 [0 2] [1 2 4 0->5] [0 0 0 0->0]
r 1.081509858 _2_ MAC  --- 11 DSR 60 [13a 2 3 800] ------- [5:255 0:255 253 2] 4 [0 2] [1 2 4 0->5] [0 0 0 0->0]
s 1.081519858 _2_ MAC  --- 0 ACK 38 [0 3 0 0] 
r 1.081534858 _2_ RTR  --- 11 DSR 60 [13a 2 3 800] ------- [5:255 0:255 253 2] 4 [0 2] [1 2 4 0->5] [0 0 0 0->0]
f 1.081534858 _2_ RTR  --- 11 DSR 60 [13a 2 3 800] ------- [5:255 0:255 252 0] 4 [0 2] [1 2 4 0->5] [0 0 0 0->0]
D 1.081534858 _2_ IFQ  ARP 14 DSR 60 [13a 2 2 800] ------- [5:255 0:255 252 0] 4 [0 2] [1 2 4 0->5] [0 0 0 0->0]
r 1.081824330 _3_ MAC  --- 0 ACK 38 [0 3 0 0] 
s 1.082193858 _2_ MAC  --- 0 ARP 86 [0 ffffffff 2 806] ------- [REQUEST 2/2 0/0]
r 1.082882192 _1_ MAC  --- 0 ARP 28 [0 ffffffff 2 806] ------- [REQUEST 2/2 0/0]
r 1.082882330 _3_ MAC  --- 0 ARP 28 [0 ffffffff 2 806] ------- [REQUEST 2/2 0/0]
r 1.082882604 _0_ MAC  --- 0 ARP 28 [0 ffffffff 2 806] ------- [REQUEST 2/2 0/0]
r 1.082882604 _4_ MAC  --- 0 ARP 28 [0 ffffffff 2 806] ------- [REQUEST 2/2 0/0]
s 1.083031858 _2_ MAC  --- 0 ARP 86 [0 ffffffff 2 806] ------- [REQUEST 2/2 0/0]
r 1.083720192 _1_ MAC  --- 0 ARP 28 [0 ffffffff 2 806] ------- [REQUEST 2/2 0/0]
r 1.083720330 _3_ MAC  --- 0 ARP 28 [0 ffffffff 2 806] ------- [REQUEST 2/2 0/0]
r 1.083720604 _0_ MAC  --- 0 ARP 28 [0 ffffffff 2 806] ------- [REQUEST 2/2 0/0]
r 1.083720604 _4_ MAC  --- 0 ARP 28 [0 ffffffff 2 806] ------- [REQUEST 2/2 0/0]
s 1.084150604 _0_ MAC  --- 0 RTS 44 [52e 2 0 0] 
r 1.084503349 _2_ MAC  --- 0 RTS 44 [52e 2 0 0] 
s 1.084513349 _2_ MAC  --- 0 CTS 38 [3f4 0 0 0] 
r 1.084818095 _0_ MAC  --- 0 CTS 38 [3f4 0 0 0] 
s 1.084828095 _0_ MAC  --- 0 ARP 86 [13a 2 0 806] ------- [REPLY 0/0 2/2]
r 1.085516840 _2_ MAC  --- 0 ARP 28 [13a 2 0 806] ------- [REPLY 0/0 2/2]
s 1.085526840 _2_ MAC  --- 0 ACK 38 [0 0 0 0] 
r 1.085831585 _0_ MAC  --- 0 ACK 38 [0 0 0 0] 
s 1.086020840 _2_ MAC  --- 0 RTS 44 [62e 0 2 0] 
r 1.086373585 _0_ MAC  --- 0 RTS 44 [62e 0 2 0] 
s 1.086383585 _0_ MAC  --- 0 CTS 38 [4f4 2 0 0] 
r 1.086688331 _2_ MAC  --- 0 CTS 38 [4f4 2 0 0] 
s 1.086698331 _2_ MAC  --- 11 DSR 118 [13a 0 2 800] ------- [5:255 0:255 252 0] 4 [0 2] [1 2 4 0->5] [0 0 0 0->0]
r 1.087643076 _0_ MAC  --- 11 DSR 60 [13a 0 2 800] ------- [5:255 0:255 252 0] 4 [0 2] [1 2 4 0->5] [0 0 0 0->0]
s 1.087653076 _0_ MAC  --- 0 ACK 38 [0 2 0 0] 
r 1.087668076 _0_ RTR  --- 11 DSR 60 [13a 0 2 800] ------- [5:255 0:255 252 0] 4 [0 2] [1 2 4 0->5] [0 0 0 0->0]
SFESTs 1.087668076 _0_ 0 [0 -> 5] 1(1) to 2 [0 |2 3 5 ]
SFESTs 1.087668076 _0_ 2 [0 -> 5] 1(1) to 2 [0 |2 3 5 ]
SFESTs 1.087668076 _0_ 4 [0 -> 5] 1(1) to 2 [0 |2 3 5 ]
SFs 1.087668076 _0_ 9 [0 -> 5] 1(0) to 2 
SFs 1.087668076 _0_ 12 [0 -> 5] 1(0) to 2 
SFs 1.087668076 _0_ 20 [0 -> 5] 1(0) to 2 
s 1.087668076 _0_ RTR  --- 0 cbr 1044 [0 0 0 0] ------- [0:2 5:0 32 2] [0] 0 0
r 1.087957821 _2_ MAC  --- 0 ACK 38 [0 2 0 0] 
s 1.088207076 _0_ MAC  --- 0 RTS 44 [52e 2 0 0] 
r 1.088559821 _2_ MAC  --- 0 RTS 44 [52e 2 0 0] 
s 1.088569821 _2_ MAC  --- 0 CTS 38 [3f4 0 0 0] 
r 1.088874567 _0_ MAC  --- 0 CTS 38 [3f4 0 0 0] 
s 1.088884567 _0_ MAC  --- 0 ARP 86 [13a 2 0 806] ------- [REPLY 0/0 2/2]
r 1.089573312 _2_ MAC  --- 0 ARP 28 [13a 2 0 806] ------- [REPLY 0/0 2/2]
s 1.089583312 _2_ MAC  --- 0 ACK 38 [0 0 0 0] 
r 1.089888057 _0_ MAC  --- 0 ACK 38 [0 0 0 0] 
s 1.089978057 _0_ MAC  --- 0 RTS 44 [24ee 2 0 0] 
r 1.090000000 _0_ RTR  --- 22 cbr 1000 [0 0 0 0] ------- [0:2 5:0 32 0] [6] 0 0
SFs 1.090000000 _0_ 22 [0 -> 5] 1(0) to 2 
s 1.090000000 _0_ RTR  --- 22 cbr 1020 [0 0 0 0] ------- [0:2 5:0 32 2] [6] 0 0
r 1.090330803 _2_ MAC  --- 0 RTS 44 [24ee 2 0 0] 
s 1.090340803 _2_ MAC  --- 0 CTS 38 [23b4 0 0 0] 
r 1.090645548 _0_ MAC  --- 0 CTS 38 [23b4 0 0 0] 
s 1.090655548 _0_ MAC  --- 0 cbr 1102 [13a 2 0 800] ------- [0:2 5:0 32 2] [0] 0 0
r 1.099472293 _2_ MAC  --- 0 cbr 1044 [13a 2 0 800] ------- [0:2 5:0 32 2] [0] 1 0
s 1.099482293 _2_ MAC  --- 0 ACK 38 [0 0 0 0] 
r 1.099497293 _2_ RTR  --- 0 cbr 1044 [13a 2 0 800] ------- [0:2 5:0 32 2] [0] 1 0
f 1.099497293 _2_ RTR  --- 0 cbr 1044 [13a 2 0 800] ------- [0:2 5:0 31 3] [0] 1 0
r 1.099787039 _0_ MAC  --- 0 ACK 38 [0 0 0 0] 
s 1.099896293 _2_ MAC  --- 0 RTS 44 [24ee 3 2 0] 
r 1.100248765 _3_ MAC  --- 0 RTS 44 [24ee 3 2 0] 
s 1.100258765 _3_ MAC  --- 0 CTS 38 [23b4 2 0 0] 
r 1.100563236 _2_ MAC  --- 0 CTS 38 [23b4 2 0 0] 
s 1.100573236 _2_ MAC  --- 0 cbr 1102 [13a 3 2 800] ------- [0:2 5:0 31 3] [0] 1 0
r 1.105000000 _0_ RTR  --- 23 cbr 1000 [0 0 0 0] ------- [0:2 5:0 32 0] [7] 0 0
SFs 1.105000000 _0_ 23 [0 -> 5] 1(0) to 2 
s 1.105000000 _0_ RTR  --- 23 cbr 1020 [0 0 0 0] ------- [0:2 5:0 32 2] [7] 0 0
r 1.109389708 _3_ MAC  --- 0 cbr 1044 [13a 3 2 800] ------- [0:2 5:0 31 3] [0] 2 0
s 1.109399708 _3_ MAC  --- 0 ACK 38 [0 2 0 0] 
r 1.109414708 _3_ RTR  --- 0 cbr 1044 [13a 3 2 800] ------- [0:2 5:0 31 3] [0] 2 0
f 1.109414708 _3_ RTR  --- 0 cbr 1044 [13a 3 2 800] ------- [0:2 5:0 30 5] [0] 2 0
r 1.109704179 _2_ MAC  --- 0 ACK 38 [0 2 0 0] 
s 1.109913708 _3_ MAC  --- 0 RTS 44 [24ee 5 3 0] 
r 1.110266453 _5_ MAC  --- 0 RTS 44 [24ee 5 3 0] 
s 1.110276453 _5_ MAC  --- 0 CTS 38 [23b4 3 0 0] 
r 1.110581198 _3_ MAC  --- 0 CTS 38 [23b4 3 0 0] 
s 1.110591198 _3_ MAC  --- 0 cbr 1102 [13a 5 3 800] ------- [0:2 5:0 30 5] [0] 2 0
s 1.117668076 _0_ RTR  --- 2 cbr 1044 [0 0 0 0] ------- [0:2 5:0 32 2] [1] 0 0
r 1.119407944 _5_ MAC  --- 0 cbr 1044 [13a 5 3 800] ------- [0:2 5:0 30 5] [0] 3 0
s 1.119417944 _5_ MAC  --- 0 ACK 38 [0 3 0 0] 
r 1.119432944 _5_ RTR  --- 0 cbr 1044 [13a 5 3 800] ------- [0:2 5:0 30 5] [0] 3 0
r 1.119722689 _3_ MAC  --- 0 ACK 38 [0 3 0 0] 
r 1.120000000 _0_ RTR  --- 24 cbr 1000 [0 0 0 0] ------- [0:2 5:0 32 0] [8] 0 0
SFs 1.120000000 _0_ 24 [0 -> 5] 1(0) to 2 
s 1.120000000 _0_ RTR  --- 24 cbr 1020 [0 0 0 0] ------- [0:2 5:0 32 2] [8] 0 0
s 1.120142400 _0_ MAC  --- 0 RTS 44 [242e 2 0 0] 
r 1.120495146 _2_ MAC  --- 0 RTS 44 [242e 2 0 0] 
s 1.120505146 _2_ MAC  --- 0 CTS 38 [22f4 0 0 0] 
r 1.120809891 _0_ MAC  --- 0 CTS 38 [22f4 0 0 0] 
s 1.120819891 _0_ MAC  --- 22 cbr 1078 [13a 2 0 800] ------- [0:2 5:0 32 2] [6] 0 0
r 1.129444636 _2_ MAC  --- 22 cbr 1020 [13a 2 0 800] ------- [0:2 5:0 32 2] [6] 1 0
s 1.129454636 _2_ MAC  --- 0 ACK 38 [0 0 0 0] 
r 1.129469636 _2_ RTR  --- 22 cbr 1020 [13a 2 0 800] ------- [0:2 5:0 32 2] [6] 1 0
SFf 1.129469636 _2_ 22 [0 -> 5] 1 to 3
f 1.129469636 _2_ RTR  --- 22 cbr 1020 [13a 2 0 800] ------- [0:2 5:0 31 3] [6] 1 0
r 1.129759382 _0_ MAC  --- 0 ACK 38 [0 0 0 0] 
s 1.130008636 _2_ MAC  --- 0 RTS 44 [242e 3 2 0] 
r 1.130361108 _3_ MAC  --- 0 RTS 44 [242e 3 2 0] 
s 1.130371108 _3_ MAC  --- 0 CTS 38 [22f4 2 0 0] 
r 1.130675579 _2_ MAC  --- 0 CTS 38 [22f4 2 0 0] 
s 1.130685579 _2_ MAC  --- 22 cbr 1078 [13a 3 2 800] ------- [0:2 5:0 31 3] [6] 1 0
r 1.135000000 _0_ RTR  --- 25 cbr 1000 [0 0 0 0] ------- [0:2 5:0 32 0] [9] 0 0
SFs 1.135000000 _0_ 25 [0 -> 5] 1(0) to 2 
s 1.135000000 _0_ RTR  --- 25 cbr 1020 [0 0 0 0] ------- [0:2 5:0 32 2] [9] 0 0
r 1.139310051 _3_ MAC  --- 22 cbr 1020 [13a 3 2 800] ------- [0:2 5:0 31 3] [6] 2 0
s 1.139320051 _3_ MAC  --- 0 ACK 38 [0 2 0 0] 
r 1.139335051 _3_ RTR  --- 22 cbr 1020 [13a 3 2 800] ------- [0:2 5:0 31 3] [6] 2 0
SFf 1.139335051 _3_ 22 [0 -> 5] 1 to 5
f 1.139335051 _3_ RTR  --- 22 cbr 1020 [13a 3 2 800] ------- [0:2 5:0 30 5] [6] 2 0
r 1.139624522 _2_ MAC  --- 0 ACK 38 [0 2 0 0] 
s 1.140094051 _3_ MAC  --- 0 RTS 44 [242e 5 3 0] 
r 1.140446796 _5_ MAC  --- 0 RTS 44 [242e 5 3 0] 
s 1.140456796 _5_ MAC  --- 0 CTS 38 [22f4 3 0 0] 
r 1.140761541 _3_ MAC  --- 0 CTS 38 [22f4 3 0 0] 
s 1.140771541 _3_ MAC  --- 22 cbr 1078 [13a 5 3 800] ------- [0:2 5:0 30 5] [6] 2 0
s 1.147668076 _0_ RTR  --- 4 cbr 1044 [0 0 0 0] ------- [0:2 5:0 32 2] [2] 0 0
r 1.149396287 _5_ MAC  --- 22 cbr 1020 [13a 5 3 800] ------- [0:2 5:0 30 5] [6] 3 0
s 1.149406287 _5_ MAC  --- 0 ACK 38 [0 3 0 0] 
r 1.149421287 _5_ RTR  --- 22 cbr 1020 [13a 5 3 800] ------- [0:2 5:0 30 5] [6] 3 0
r 1.149711032 _3_ MAC  --- 0 ACK 38 [0 3 0 0] 
r 1.150000000 _0_ RTR  --- 26 cbr 1000 [0 0 0 0] ------- [0:2 5:0 32 0] [10] 0 0
SFs 1.150000000 _0_ 26 [0 -> 5] 1(0) to 2 
s 1.150000000 _0_ RTR  --- 26 cbr 1020 [0 0 0 0] ------- [0:2 5:0 32 2] [10] 0 0
s 1.150050743 _0_ MAC  --- 0 RTS 44 [242e 2 0 0] 
r 1.150403488 _2_ MAC  --- 0 RTS 44 [242e 2 0 0] 
s 1.150413488 _2_ MAC  --- 0 CTS 38 [22f4 0 0 0] 
r 1.150718234 _0_ MAC  --- 0 CTS 38 [22f4 0 0 0] 
s 1.150728234 _0_ MAC  --- 23 cbr 1078 [13a 2 0 800] ------- [0:2 5:0 32 2] [7] 0 0
r 1.159352979 _2_ MAC  --- 23 cbr 1020 [13a 2 0 800] ------- [0:2 5:0 32 2] [7] 1 0
s 1.159362979 _2_ MAC  --- 0 ACK 38 [0 0 0 0] 
r 1.159377979 _2_ RTR  --- 23 cbr 1020 [13a 2 0 800] ------- [0:2 5:0 32 2] [7] 1 0
SFf 1.159377979 _2_ 23 [0 -> 5] 1 to 3
f 1.159377979 _2_ RTR  --- 23 cbr 1020 [13a 2 0 800] ------- [0:2 5:0 31 3] [7] 1 0
r 1.159667724 _0_ MAC  --- 0 ACK 38 [0 0 0 0] 
s 1.159737724 _0_ MAC  --- 0 RTS 44 [24ee 2 0 0] 
r 1.160090470 _2_ MAC  --- 0 RTS 44 [24ee 2 0 0] 
s 1.160100470 _2_ MAC  --- 0 CTS 38 [23b4 0 0 0] 
r 1.160405215 _0_ MAC  --- 0 CTS 38 [23b4 0 0 0] 
s 1.160415215 _0_ MAC  --- 2 cbr 1102 [13a 2 0 800] ------- [0:2 5:0 32 2] [1] 0 0
r 1.165000000 _0_ RTR  --- 27 cbr 1000 [0 0 0 0] ------- [0:2 5:0 32 0] [11] 0 0
SFs 1.165000000 _0_ 27 [0 -> 5] 1(0) to 2 
s 1.165000000 _0_ RTR  --- 27 cbr 1020 [0 0 0 0] ------- [0:2 5:0 32 2] [11] 0 0
r 1.169231961 _2_ MAC  --- 2 cbr 1044 [13a 2 0 800] ------- [0:2 5:0 32 2] [1] 1 0
s 1.169241961 _2_ MAC  --- 0 ACK 38 [0 0 0 0] 
r 1.169256961 _2_ RTR  --- 2 cbr 1044 [13a 2 0 800] ------- [0:2 5:0 32 2] [1] 1 0
f 1.169256961 _2_ RTR  --- 2 cbr 1044 [13a 2 0 800] ------- [0:2 5:0 31 3] [1] 1 0
r 1.169546706 _0_ MAC  --- 0 ACK 38 [0 0 0 0] 
s 1.169675961 _2_ MAC  --- 0 RTS 44 [242e 3 2 0] 
r 1.170028432 _3_ MAC  --- 0 RTS 44 [242e 3 2 0] 
s 1.170038432 _3_ MAC  --- 0 CTS 38 [22f4 2 0 0] 
r 1.170342903 _2_ MAC  --- 0 CTS 38 [22f4 2 0 0] 
s 1.170352903 _2_ MAC  --- 23 cbr 1078 [13a 3 2 800] ------- [0:2 5:0 31 3] [7] 1 0
s 1.177668076 _0_ RTR  --- 9 cbr 1020 [0 0 0 0] ------- [0:2 5:0 32 2] [3] 0 0
r 1.178977375 _3_ MAC  --- 23 cbr 1020 [13a 3 2 800] ------- [0:2 5:0 31 3] [7] 2 0
s 1.178987375 _3_ MAC  --- 0 ACK 38 [0 2 0 0] 
r 1.179002375 _3_ RTR  --- 23 cbr 1020 [13a 3 2 800] ------- [0:2 5:0 31 3] [7] 2 0
SFf 1.179002375 _3_ 23 [0 -> 5] 1 to 5
f 1.179002375 _3_ RTR  --- 23 cbr 1020 [13a 3 2 800] ------- [0:2 5:0 30 5] [7] 2 0
r 1.179291846 _2_ MAC  --- 0 ACK 38 [0 2 0 0] 
s 1.179441375 _3_ MAC  --- 0 RTS 44 [242e 5 3 0] 
r 1.179794120 _5_ MAC  --- 0 RTS 44 [242e 5 3 0] 
s 1.179804120 _5_ MAC  --- 0 CTS 38 [22f4 3 0 0] 
r 1.180000000 _0_ RTR  --- 28 cbr 1000 [0 0 0 0] ------- [0:2 5:0 32 0] [12] 0 0
SFs 1.180000000 _0_ 28 [0 -> 5] 1(0) to 2 
s 1.180000000 _0_ RTR  --- 28 cbr 1020 [0 0 0 0] ------- [0:2 5:0 32 2] [12] 0 0
r 1.180108865 _3_ MAC  --- 0 CTS 38 [22f4 3 0 0] 
s 1.180118865 _3_ MAC  --- 23 cbr 1078 [13a 5 3 800] ------- [0:2 5:0 30 5] [7] 2 0
r 1.188743611 _5_ MAC  --- 23 cbr 1020 [13a 5 3 800] ------- [0:2 5:0 30 5] [7] 3 0
s 1.188753611 _5_ MAC  --- 0 ACK 38 [0 3 0 0] 
r 1.188768611 _5_ RTR  --- 23 cbr 1020 [13a 5 3 800] ------- [0:2 5:0 30 5] [7] 3 0
r 1.189058356 _3_ MAC  --- 0 ACK 38 [0 3 0 0] 
s 1.189578067 _0_ MAC  --- 0 RTS 44 [242e 2 0 0] 
r 1.189930813 _2_ MAC  --- 0 RTS 44 [242e 2 0 0] 
s 1.189940813 _2_ MAC  --- 0 CTS 38 [22f4 0 0 0] 
r 1.190245558 _0_ MAC  --- 0 CTS 38 [22f4 0 0 0] 
s 1.190255558 _0_ MAC  --- 24 cbr 1078 [13a 2 0 800] ------- [0:2 5:0 32 2] [8] 0 0
r 1.195000000 _0_ RTR  --- 29 cbr 1000 [0 0 0 0] ------- [0:2 5:0 32 0] [13] 0 0
SFs 1.195000000 _0_ 29 [0 -> 5] 1(0) to 2 
s 1.195000000 _0_ RTR  --- 29 cbr 1020 [0 0 0 0] ------- [0:2 5:0 32 2] [13] 0 0
r 1.198880303 _2_ MAC  --- 24 cbr 1020 [13a 2 0 800] ------- [0:2 5:0 32 2] [8] 1 0
s 1.198890303 _2_ MAC  --- 0 ACK 38 [0 0 0 0] 
r 1.198905303 _2_ RTR  --- 24 cbr 1020 [13a 2 0 800] ------- [0:2 5:0 32 2] [8] 1 0
SFf 1.198905303 _2_ 24 [0 -> 5] 1 to 3
f 1.198905303 _2_ RTR  --- 24 cbr 1020 [13a 2 0 800] ------- [0:2 5:0 31 3] [8] 1 0
r 1.199195049 _0_ MAC  --- 0 ACK 38 [0 0 0 0] 
s 1.199644303 _2_ MAC  --- 0 RTS 44 [24ee 3 2 0] 
r 1.199996775 _3_ MAC  --- 0 RTS 44 [24ee 3 2 0] 
s 1.200006775 _3_ MAC  --- 0 CTS 38 [23b4 2 0 0] 
r 1.200311246 _2_ MAC  --- 0 CTS 38 [23b4 2 0 0] 
s 1.200321246 _2_ MAC  --- 2 cbr 1102 [13a 3 2 800] ------- [0:2 5:0 31 3] [1] 1 0
s 1.207668076 _0_ RTR  --- 12 cbr 1020 [0 0 0 0] ------- [0:2 5:0 32 2] [4] 0 0
r 1.209137718 _3_ MAC  --- 2 cbr 1044 [13a 3 2 800] ------- [0:2 5:0 31 3] [1] 2 0
s 1.209147718 _3_ MAC  --- 0 ACK 38 [0 2 0 0] 
r 1.209162718 _3_ RTR  --- 2 cbr 1044 [13a 3 2 800] ------- [0:2 5:0 31 3] [1] 2 0
f 1.209162718 _3_ RTR  --- 2 cbr 1044 [13a 3 2 800] ------- [0:2 5:0 30 5] [1] 2 0
r 1.209452189 _2_ MAC  --- 0 ACK 38 [0 2 0 0] 
s 1.209642189 _2_ MAC  --- 0 RTS 44 [242e 3 2 0] 
r 1.209994660 _3_ MAC  --- 0 RTS 44 [242e 3 2 0] 
r 1.210000000 _0_ RTR  --- 30 cbr 1000 [0 0 0 0] ------- [0:2 5:0 32 0] [14] 0 0
SFs 1.210000000 _0_ 30 [0 -> 5] 1(0) to 2 
s 1.210000000 _0_ RTR  --- 30 cbr 1020 [0 0 0 0] ------- [0:2 5:0 32 2] [14] 0 0
s 1.210004660 _3_ MAC  --- 0 CTS 38 [22f4 2 0 0] 
r 1.210309132 _2_ MAC  --- 0 CTS 38 [22f4 2 0 0] 
s 1.210319132 _2_ MAC  --- 24 cbr 1078 [13a 3 2 800] ------- [0:2 5:0 31 3] [8] 1 0
r 1.218943603 _3_ MAC  --- 24 cbr 1020 [13a 3 2 800] ------- [0:2 5:0 31 3] [8] 2 0
s 1.218953603 _3_ MAC  --- 0 ACK 38 [0 2 0 0] 
r 1.218968603 _3_ RTR  --- 24 cbr 1020 [13a 3 2 800] ------- [0:2 5:0 31 3] [8] 2 0
SFf 1.218968603 _3_ 24 [0 -> 5] 1 to 5
f 1.218968603 _3_ RTR  --- 24 cbr 1020 [13a 3 2 800] ------- [0:2 5:0 30 5] [8] 2 0
r 1.219258075 _2_ MAC  --- 0 ACK 38 [0 2 0 0] 
s 1.219387603 _3_ MAC  --- 0 RTS 44 [24ee 5 3 0] 
r 1.219740349 _5_ MAC  --- 0 RTS 44 [24ee 5 3 0] 
s 1.219750349 _5_ MAC  --- 0 CTS 38 [23b4 3 0 0] 
r 1.220055094 _3_ MAC  --- 0 CTS 38 [23b4 3 0 0] 
s 1.220065094 _3_ MAC  --- 2 cbr 1102 [13a 5 3 800] ------- [0:2 5:0 30 5] [1] 2 0
r 1.225000000 _0_ RTR  --- 31 cbr 1000 [0 0 0 0] ------- [0:2 5:0 32 0] [15] 0 0
SFs 1.225000000 _0_ 31 [0 -> 5] 1(0) to 2 
s 1.225000000 _0_ RTR  --- 31 cbr 1020 [0 0 0 0] ------- [0:2 5:0 32 2] [15] 0 0
r 1.228881839 _5_ MAC  --- 2 cbr 1044 [13a 5 3 800] ------- [0:2 5:0 30 5] [1] 3 0
s 1.228891839 _5_ MAC  --- 0 ACK 38 [0 3 0 0] 
r 1.228906839 _5_ RTR  --- 2 cbr 1044 [13a 5 3 800] ------- [0:2 5:0 30 5] [1] 3 0
r 1.229196585 _3_ MAC  --- 0 ACK 38 [0 3 0 0] 
s 1.229336296 _0_ MAC  --- 0 RTS 44 [242e 2 0 0] 
r 1.229689041 _2_ MAC  --- 0 RTS 44 [242e 2 0 0] 
s 1.229699041 _2_ MAC  --- 0 CTS 38 [22f4 0 0 0] 
r 1.230003787 _0_ MAC  --- 0 CTS 38 [22f4 0 0 0] 
s 1.230013787 _0_ MAC  --- 25 cbr 1078 [13a 2 0 800] ------- [0:2 5:0 32 2] [9] 0 0
s 1.237668076 _0_ RTR  --- 20 cbr 1020 [0 0 0 0] ------- [0:2 5:0 32 2] [5] 0 0
r 1.238638532 _2_ MAC  --- 25 cbr 1020 [13a 2 0 800] ------- [0:2 5:0 32 2] [9] 1 0
s 1.238648532 _2_ MAC  --- 0 ACK 38 [0 0 0 0] 
r 1.238663532 _2_ RTR  --- 25 cbr 1020 [13a 2 0 800] ------- [0:2 5:0 32 2] [9] 1 0
SFf 1.238663532 _2_ 25 [0 -> 5] 1 to 3
f 1.238663532 _2_ RTR  --- 25 cbr 1020 [13a 2 0 800] ------- [0:2 5:0 31 3] [9] 1 0
r 1.238953277 _0_ MAC  --- 0 ACK 38 [0 0 0 0] 
s 1.239162532 _2_ MAC  --- 0 RTS 44 [242e 3 2 0] 
r 1.239515003 _3_ MAC  --- 0 RTS 44 [242e 3 2 0] 
s 1.239525003 _3_ MAC  --- 0 CTS 38 [22f4 2 0 0] 
r 1.239829475 _2_ MAC  --- 0 CTS 38 [22f4 2 0 0] 
s 1.239839475 _2_ MAC  --- 25 cbr 1078 [13a 3 2 800] ------- [0:2 5:0 31 3] [9] 1 0
r 1.240000000 _0_ RTR  --- 32 cbr 1000 [0 0 0 0] ------- [0:2 5:0 32 0] [16] 0 0
SFs 1.240000000 _0_ 32 [0 -> 5] 1(0) to 2 
s 1.240000000 _0_ RTR  --- 32 cbr 1020 [0 0 0 0] ------- [0:2 5:0 32 2] [16] 0 0
r 1.248463946 _3_ MAC  --- 25 cbr 1020 [13a 3 2 800] ------- [0:2 5:0 31 3] [9] 2 0
s 1.248473946 _3_ MAC  --- 0 ACK 38 [0 2 0 0] 
r 1.248488946 _3_ RTR  --- 25 cbr 1020 [13a 3 2 800] ------- [0:2 5:0 31 3] [9] 2 0
SFf 1.248488946 _3_ 25 [0 -> 5] 1 to 5
f 1.248488946 _3_ RTR  --- 25 cbr 1020 [13a 3 2 800] ------- [0:2 5:0 30 5] [9] 2 0
r 1.248778417 _2_ MAC  --- 0 ACK 38 [0 2 0 0] 
s 1.249127946 _3_ MAC  --- 0 RTS 44 [242e 5 3 0] 
r 1.249480691 _5_ MAC  --- 0 RTS 44 [242e 5 3 0] 
s 1.249490691 _5_ MAC  --- 0 CTS 38 [22f4 3 0 0] 
r 1.249795437 _3_ MAC  --- 0 CTS 38 [22f4 3 0 0] 
s 1.249805437 _3_ MAC  --- 24 cbr 1078 [13a 5 3 800] ------- [0:2 5:0 30 5] [8] 2 0
r 1.255000000 _0_ RTR  --- 33 cbr 1000 [0 0 0 0] ------- [0:2 5:0 32 0] [17] 0 0
SFs 1.255000000 _0_ 33 [0 -> 5] 1(0) to 2 
s 1.255000000 _0_ RTR  --- 33 cbr 1020 [0 0 0 0] ------- [0:2 5:0 32 2] [17] 0 0
r 1.258430182 _5_ MAC  --- 24 cbr 1020 [13a 5 3 800] ------- [0:2 5:0 30 5] [8] 3 0
s 1.258440182 _5_ MAC  --- 0 ACK 38 [0 3 0 0] 
r 1.258455182 _5_ RTR  --- 24 cbr 1020 [13a 5 3 800] ------- [0:2 5:0 30 5] [8] 3 0
r 1.258744928 _3_ MAC  --- 0 ACK 38 [0 3 0 0] 
s 1.258904639 _0_ MAC  --- 0 RTS 44 [24ee 2 0 0] 
r 1.259257384 _2_ MAC  --- 0 RTS 44 [24ee 2 0 0] 
s 1.259267384 _2_ MAC  --- 0 CTS 38 [23b4 0 0 0] 
r 1.259572129 _0_ MAC  --- 0 CTS 38 [23b4 0 0 0] 
s 1.259582129 _0_ MAC  --- 4 cbr 1102 [13a 2 0 800] ------- [0:2 5:0 32 2] [2] 0 0
r 1.268398875 _2_ MAC  --- 4 cbr 1044 [13a 2 0 800] ------- [0:2 5:0 32 2] [2] 1 0
s 1.268408875 _2_ MAC  --- 0 ACK 38 [0 0 0 0] 
r 1.268423875 _2_ RTR  --- 4 cbr 1044 [13a 2 0 800] ------- [0:2 5:0 32 2] [2] 1 0
f 1.268423875 _2_ RTR  --- 4 cbr 1044 [13a 2 0 800] ------- [0:2 5:0 31 3] [2] 1 0
r 1.268713620 _0_ MAC  --- 0 ACK 38 [0 0 0 0] 
s 1.269082875 _2_ MAC  --- 0 RTS 44 [24ee 3 2 0] 
r 1.269435346 _3_ MAC  --- 0 RTS 44 [24ee 3 2 0] 
s 1.269445346 _3_ MAC  --- 0 CTS 38 [23b4 2 0 0] 
r 1.269749818 _2_ MAC  --- 0 CTS 38 [23b4 2 0 0] 
s 1.269759818 _2_ MAC  --- 4 cbr 1102 [13a 3 2 800] ------- [0:2 5:0 31 3] [2] 1 0
r 1.270000000 _0_ RTR  --- 34 cbr 1000 [0 0 0 0] ------- [0:2 5:0 32 0] [18] 0 0