Confidant Wrote this!
M 0.0 nn 50 x 1500 y 1000 rp DSR
M 0.0 prop Propagation/TwoRayGround ant Antenna/OmniAntenna
Sconfig 0.00000 tap: on snoop: rts? on errs? on
Sconfig 0.00000 salvage: on !bd replies? on
Sconfig 0.00000 grat error: on grat reply: on
Sconfig 0.00000 $reply for props: on ring 0 search: on
Sconfig 0.00000 using MOBICACHE
s 2.556838879 _1_ AGT  --- 0 cbr 512 [0 0 0 0] ------- [1:0 2:0 32 0] [0] 0 16777215
D 2.700974125 _16_ IFQ  ARP 4 DSR 60 [13a 10 10 800] ------- [2:255 1:255 253 8] 4 [0 2] [1 2 4 1->2] [0 0 0 0->0]
SFESTs 2.713594755 _1_ 0 [1 -> 2] 1(1) to 8 [1 |8 16 3 2 ]
r 2.743039969 _2_ AGT  --- 0 cbr 512 [13a 2 3 800] ------- [1:0 2:0 29 2] [0] 4 16777215
s 2.915358363 _1_ AGT  --- 9 cbr 512 [0 0 0 0] ------- [1:0 2:0 32 0] [1] 0 16777215
SFESTs 2.915358363 _1_ 9 [1 -> 2] 1(1) to 8 [1 |8 16 3 2 ]
r 2.942413462 _2_ AGT  --- 9 cbr 512 [13a 2 3 800] ------- [1:0 2:0 29 2] [1] 4 16777215
s 3.111531531 _1_ AGT  --- 11 cbr 512 [0 0 0 0] ------- [1:0 2:0 32 0] [2] 0 16777215
SFESTs 3.111531531 _1_ 11 [1 -> 2] 3(1) to 8 [1 |8 16 2 ]
r 3.130033327 _2_ AGT  --- 11 cbr 512 [13a 2 10 800] ------- [1:0 2:0 30 2] [2] 3 16777215
s 3.262286878 _1_ AGT  --- 12 cbr 512 [0 0 0 0] ------- [1:0 2:0 32 0] [3] 0 16777215
SFESTs 3.262286878 _1_ 12 [1 -> 2] 3(1) to 8 [1 |8 16 2 ]
r 3.281128674 _2_ AGT  --- 12 cbr 512 [13a 2 10 800] ------- [1:0 2:0 30 2] [3] 3 16777215
s 3.436695926 _1_ AGT  --- 13 cbr 512 [0 0 0 0] ------- [1:0 2:0 32 0] [4] 0 16777215
SFESTs 3.436695926 _1_ 13 [1 -> 2] 3(1) to 8 [1 |8 16 2 ]
r 3.454617722 _2_ AGT  --- 13 cbr 512 [13a 2 10 800] ------- [1:0 2:0 30 2] [4] 3 16777215
s 3.793521380 _1_ AGT  --- 14 cbr 512 [0 0 0 0] ------- [1:0 2:0 32 0] [5] 0 16777215
SFs 3.793521380 _1_ 14 [1 -> 2] 3(0) to 8 
SFf 3.799380104 _8_ 14 [1 -> 2] 3 to 16
SFf 3.805423498 _16_ 14 [1 -> 2] 3 to 2
r 3.811207176 _2_ AGT  --- 14 cbr 512 [13a 2 10 800] ------- [1:0 2:0 30 2] [5] 3 16777215
s 4.061449554 _1_ AGT  --- 15 cbr 512 [0 0 0 0] ------- [1:0 2:0 32 0] [6] 0 16777215
SFs 4.061449554 _1_ 15 [1 -> 2] 3(0) to 8 
SFf 4.067068279 _8_ 15 [1 -> 2] 3 to 16
SFf 4.073111673 _16_ 15 [1 -> 2] 3 to 2
r 4.079395350 _2_ AGT  --- 15 cbr 512 [13a 2 10 800] ------- [1:0 2:0 30 2] [6] 3 16777215
s 4.243750912 _1_ AGT  --- 16 cbr 512 [0 0 0 0] ------- [1:0 2:0 32 0] [7] 0 16777215
SFs 4.243750912 _1_ 16 [1 -> 2] 3(0) to 8 
SFf 4.249629636 _8_ 16 [1 -> 2] 3 to 16
SFf 4.255973030 _16_ 16 [1 -> 2] 3 to 2
r 4.261796707 _2_ AGT  --- 16 cbr 512 [13a 2 10 800] ------- [1:0 2:0 30 2] [7] 3 16777215
s 4.466743017 _1_ AGT  --- 17 cbr 512 [0 0 0 0] ------- [1:0 2:0 32 0] [8] 0 16777215
SFs 4.466743017 _1_ 17 [1 -> 2] 3(0) to 8 
SFf 4.472781741 _8_ 17 [1 -> 2] 3 to 16
SFf 4.478745135 _16_ 17 [1 -> 2] 3 to 2
r 4.484628812 _2_ AGT  --- 17 cbr 512 [13a 2 10 800] ------- [1:0 2:0 30 2] [8] 3 16777215
s 4.774360170 _1_ AGT  --- 18 cbr 512 [0 0 0 0] ------- [1:0 2:0 32 0] [9] 0 16777215
SFs 4.774360170 _1_ 18 [1 -> 2] 3(0) to 8 
SFf 4.780198894 _8_ 18 [1 -> 2] 3 to 16
SFf 4.786522288 _16_ 18 [1 -> 2] 3 to 2
r 4.792865966 _2_ AGT  --- 18 cbr 512 [13a 2 10 800] ------- [1:0 2:0 30 2] [9] 3 16777215
s 5.118217397 _1_ AGT  --- 19 cbr 512 [0 0 0 0] ------- [1:0 2:0 32 0] [10] 0 16777215
SFs 5.118217397 _1_ 19 [1 -> 2] 3(0) to 8 
SFf 5.124096121 _8_ 19 [1 -> 2] 3 to 16
SFf 5.130239515 _16_ 19 [1 -> 2] 3 to 2
r 5.136543193 _2_ AGT  --- 19 cbr 512 [13a 2 10 800] ------- [1:0 2:0 30 2] [10] 3 16777215
s 5.386350703 _1_ AGT  --- 20 cbr 512 [0 0 0 0] ------- [1:0 2:0 32 0] [11] 0 16777215
SFs 5.386350703 _1_ 20 [1 -> 2] 3(0) to 8 
SFf 5.392389428 _8_ 20 [1 -> 2] 3 to 16
SFf 5.398652822 _16_ 20 [1 -> 2] 3 to 2
r 5.404636499 _2_ AGT  --- 20 cbr 512 [13a 2 10 800] ------- [1:0 2:0 30 2] [11] 3 16777215
s 5.677726021 _1_ AGT  --- 21 cbr 512 [0 0 0 0] ------- [1:0 2:0 32 0] [12] 0 16777215
SFs 5.677726021 _1_ 21 [1 -> 2] 3(0) to 8 
SFf 5.683624745 _8_ 21 [1 -> 2] 3 to 16
SFf 5.689968139 _16_ 21 [1 -> 2] 3 to 2
r 5.695791817 _2_ AGT  --- 21 cbr 512 [13a 2 10 800] ------- [1:0 2:0 30 2] [12] 3 16777215
s 5.949920438 _1_ AGT  --- 22 cbr 512 [0 0 0 0] ------- [1:0 2:0 32 0] [13] 0 16777215
SFs 5.949920438 _1_ 22 [1 -> 2] 3(0) to 8 
SFf 5.955539162 _8_ 22 [1 -> 2] 3 to 16
SFf 5.961562556 _16_ 22 [1 -> 2] 3 to 2
r 5.967866234 _2_ AGT  --- 22 cbr 512 [13a 2 10 800] ------- [1:0 2:0 30 2] [13] 3 16777215
s 6.284534227 _1_ AGT  --- 23 cbr 512 [0 0 0 0] ------- [1:0 2:0 32 0] [14] 0 16777215
SFs 6.284534227 _1_ 23 [1 -> 2] 3(0) to 8 
SFf 6.290052951 _8_ 23 [1 -> 2] 3 to 16
SFf 6.296036345 _16_ 23 [1 -> 2] 3 to 2
r 6.302180022 _2_ AGT  --- 23 cbr 512 [13a 2 10 800] ------- [1:0 2:0 30 2] [14] 3 16777215
s 6.551508885 _1_ AGT  --- 24 cbr 512 [0 0 0 0] ------- [1:0 2:0 32 0] [15] 0 16777215
SFs 6.551508885 _1_ 24 [1 -> 2] 3(0) to 8 
SFf 6.557267609 _8_ 24 [1 -> 2] 3 to 16
SFf 6.563571003 _16_ 24 [1 -> 2] 3 to 2
r 6.569534680 _2_ AGT  --- 24 cbr 512 [13a 2 10 800] ------- [1:0 2:0 30 2] [15] 3 16777215
s 6.818039551 _1_ AGT  --- 25 cbr 512 [0 0 0 0] ------- [1:0 2:0 32 0] [16] 0 16777215
SFs 6.818039551 _1_ 25 [1 -> 2] 3(0) to 8 
SFf 6.823838276 _8_ 25 [1 -> 2] 3 to 16
SFf 6.829641670 _16_ 25 [1 -> 2] 3 to 2
r 6.835465347 _2_ AGT  --- 25 cbr 512 [13a 2 10 800] ------- [1:0 2:0 30 2] [16] 3 16777215
s 6.982945380 _1_ AGT  --- 26 cbr 512 [0 0 0 0] ------- [1:0 2:0 32 0] [17] 0 16777215
SFs 6.982945380 _1_ 26 [1 -> 2] 3(0) to 8 
SFf 6.988944104 _8_ 26 [1 -> 2] 3 to 16
SFf 6.995087498 _16_ 26 [1 -> 2] 3 to 2
r 7.000911176 _2_ AGT  --- 26 cbr 512 [13a 2 10 800] ------- [1:0 2:0 30 2] [17] 3 16777215
s 7.285013949 _1_ AGT  --- 27 cbr 512 [0 0 0 0] ------- [1:0 2:0 32 0] [18] 0 16777215
SFs 7.285013949 _1_ 27 [1 -> 2] 3(0) to 8 
SFf 7.291012673 _8_ 27 [1 -> 2] 3 to 16
SFf 7.297376067 _16_ 27 [1 -> 2] 3 to 2
r 7.303579744 _2_ AGT  --- 27 cbr 512 [13a 2 10 800] ------- [1:0 2:0 30 2] [18] 3 16777215
s 7.584530053 _1_ AGT  --- 28 cbr 512 [0 0 0 0] ------- [1:0 2:0 32 0] [19] 0 16777215
SFs 7.584530053 _1_ 28 [1 -> 2] 3(0) to 8 
SFf 7.590528777 _8_ 28 [1 -> 2] 3 to 16
SFf 7.596332171 _16_ 28 [1 -> 2] 3 to 2
r 7.602415848 _2_ AGT  --- 28 cbr 512 [13a 2 10 800] ------- [1:0 2:0 30 2] [19] 3 16777215
s 7.703020315 _7_ AGT  --- 29 cbr 512 [0 0 0 0] ------- [7:2 9:0 32 0] [0] 0 16777215
D 7.818794414 _6_ IFQ  ARP 34 DSR 68 [13a 6 6 800] ------- [9:255 7:255 252 18] 5 [0 2] [1 2 5 7->9] [0 0 0 0->0]
D 7.820884409 _6_ IFQ  ARP 36 DSR 76 [13a 6 6 800] ------- [9:255 7:255 251 18] 6 [0 2] [1 2 6 7->9] [0 0 0 0->0]
SSendFailure 7.829340677 _6_ 35 37 9:255 7:255 6->18 2 16777215 3 5 [9 19 |6 18 7 ]
Ssalv 7.82934 _6_ adding to SB --- 35 9 -> 7 [0]
SSendFailure 7.829340677 _6_ 37 37 9:255 7:255 6->18 2 16777215 3 6 [9 17 0 |6 18 7 ]
Ssalv 7.82934 _6_ adding to SB --- 37 9 -> 7 [0]
SFESTs 7.859796745 _7_ 29 [7 -> 9] 1(1) to 18 [7 |18 6 9 ]
r 7.886145665 _9_ AGT  --- 29 cbr 512 [13a 9 6 800] ------- [7:2 9:0 30 9] [0] 3 16777215
s 7.893529159 _1_ AGT  --- 43 cbr 512 [0 0 0 0] ------- [1:0 2:0 32 0] [20] 0 16777215
SFs 7.893529159 _1_ 43 [1 -> 2] 3(0) to 8 
SFf 7.918147883 _8_ 43 [1 -> 2] 3 to 16
SFf 7.924131277 _16_ 43 [1 -> 2] 3 to 2
r 7.930274955 _2_ AGT  --- 43 cbr 512 [13a 2 10 800] ------- [1:0 2:0 30 2] [20] 3 16777215
s 8.009032431 _7_ AGT  --- 44 cbr 512 [0 0 0 0] ------- [7:2 9:0 32 0] [1] 0 16777215
SFESTs 8.009032431 _7_ 44 [7 -> 9] 1(1) to 18 [7 |18 6 9 ]
r 8.027255505 _9_ AGT  --- 44 cbr 512 [13a 9 6 800] ------- [7:2 9:0 30 9] [1] 3 16777215
s 8.162246625 _1_ AGT  --- 45 cbr 512 [0 0 0 0] ------- [1:0 2:0 32 0] [21] 0 16777215
SFs 8.162246625 _1_ 45 [1 -> 2] 3(0) to 8 
SFf 8.168205350 _8_ 45 [1 -> 2] 3 to 16
SFf 8.174208744 _16_ 45 [1 -> 2] 3 to 2
r 8.180212421 _2_ AGT  --- 45 cbr 512 [13a 2 10 800] ------- [1:0 2:0 30 2] [21] 3 16777215
s 8.243509966 _7_ AGT  --- 46 cbr 512 [0 0 0 0] ------- [7:2 9:0 32 0] [2] 0 16777215
SFESTs 8.243509966 _7_ 46 [7 -> 9] 1(1) to 18 [7 |18 6 9 ]
r 8.261713039 _9_ AGT  --- 46 cbr 512 [13a 9 6 800] ------- [7:2 9:0 30 9] [2] 3 16777215
s 8.379680373 _1_ AGT  --- 47 cbr 512 [0 0 0 0] ------- [1:0 2:0 32 0] [22] 0 16777215
SFs 8.379680373 _1_ 47 [1 -> 2] 3(0) to 8 
SFf 8.385259098 _8_ 47 [1 -> 2] 3 to 16
SFf 8.391262492 _16_ 47 [1 -> 2] 3 to 2
r 8.397546169 _2_ AGT  --- 47 cbr 512 [13a 2 10 800] ------- [1:0 2:0 30 2] [22] 3 16777215
s 8.430846458 _7_ AGT  --- 48 cbr 512 [0 0 0 0] ------- [7:2 9:0 32 0] [3] 0 16777215
SFs 8.430846458 _7_ 48 [7 -> 9] 1(0) to 18 
SFf 8.436406290 _18_ 48 [7 -> 9] 1 to 6
SFf 8.442309828 _6_ 48 [7 -> 9] 1 to 9
r 8.448633532 _9_ AGT  --- 48 cbr 512 [13a 9 6 800] ------- [7:2 9:0 30 9] [3] 3 16777215
s 8.688794921 _7_ AGT  --- 49 cbr 512 [0 0 0 0] ------- [7:2 9:0 32 0] [4] 0 16777215
SFs 8.688794921 _7_ 49 [7 -> 9] 1(0) to 18 
SFf 8.694814753 _18_ 49 [7 -> 9] 1 to 6
SFf 8.700838290 _6_ 49 [7 -> 9] 1 to 9
r 8.706981994 _9_ AGT  --- 49 cbr 512 [13a 9 6 800] ------- [7:2 9:0 30 9] [4] 3 16777215
s 8.730798809 _1_ AGT  --- 50 cbr 512 [0 0 0 0] ------- [1:0 2:0 32 0] [23] 0 16777215
SFESTs 8.730798809 _1_ 50 [1 -> 2] 3(1) to 8 [1 |8 16 2 ]
r 8.749140604 _2_ AGT  --- 50 cbr 512 [13a 2 10 800] ------- [1:0 2:0 30 2] [23] 3 16777215
s 8.953922497 _7_ AGT  --- 51 cbr 512 [0 0 0 0] ------- [7:2 9:0 32 0] [5] 0 16777215
SFs 8.953922497 _7_ 51 [7 -> 9] 1(0) to 18 
SFf 8.959602329 _18_ 51 [7 -> 9] 1 to 6
SFf 8.965725867 _6_ 51 [7 -> 9] 1 to 9
r 8.971889570 _9_ AGT  --- 51 cbr 512 [13a 9 6 800] ------- [7:2 9:0 30 9] [5] 3 16777215
s 9.023148721 _1_ AGT  --- 52 cbr 512 [0 0 0 0] ------- [1:0 2:0 32 0] [24] 0 16777215
SFs 9.023148721 _1_ 52 [1 -> 2] 3(0) to 8 
SFf 9.029247445 _8_ 52 [1 -> 2] 3 to 16
SFf 9.035310839 _16_ 52 [1 -> 2] 3 to 2
r 9.041074517 _2_ AGT  --- 52 cbr 512 [13a 2 10 800] ------- [1:0 2:0 30 2] [24] 3 16777215
s 9.123710780 _7_ AGT  --- 53 cbr 512 [0 0 0 0] ------- [7:2 9:0 32 0] [6] 0 16777215
SFs 9.123710780 _7_ 53 [7 -> 9] 1(0) to 18 
SFf 9.129530612 _18_ 53 [7 -> 9] 1 to 6
SFf 9.135434150 _6_ 53 [7 -> 9] 1 to 9
r 9.141337854 _9_ AGT  --- 53 cbr 512 [13a 9 6 800] ------- [7:2 9:0 30 9] [6] 3 16777215
s 9.203754511 _1_ AGT  --- 54 cbr 512 [0 0 0 0] ------- [1:0 2:0 32 0] [25] 0 16777215
SFs 9.203754511 _1_ 54 [1 -> 2] 3(0) to 8 
SFf 9.209813235 _8_ 54 [1 -> 2] 3 to 16
SFf 9.216156629 _16_ 54 [1 -> 2] 3 to 2
r 9.221920307 _2_ AGT  --- 54 cbr 512 [13a 2 10 800] ------- [1:0 2:0 30 2] [25] 3 16777215
s 9.418654217 _7_ AGT  --- 55 cbr 512 [0 0 0 0] ------- [7:2 9:0 32 0] [7] 0 16777215
SFs 9.418654217 _7_ 55 [7 -> 9] 1(0) to 18 
SFf 9.424294049 _18_ 55 [7 -> 9] 1 to 6
SFf 9.430337587 _6_ 55 [7 -> 9] 1 to 9
r 9.436201291 _9_ AGT  --- 55 cbr 512 [13a 9 6 800] ------- [7:2 9:0 30 9] [7] 3 16777215
s 9.440617089 _1_ AGT  --- 56 cbr 512 [0 0 0 0] ------- [1:0 2:0 32 0] [26] 0 16777215
SFs 9.440617089 _1_ 56 [1 -> 2] 3(0) to 8 
SFf 9.446715813 _8_ 56 [1 -> 2] 3 to 16
SFf 9.452719207 _16_ 56 [1 -> 2] 3 to 2
r 9.458902884 _2_ AGT  --- 56 cbr 512 [13a 2 10 800] ------- [1:0 2:0 30 2] [26] 3 16777215
s 9.584453289 _7_ AGT  --- 57 cbr 512 [0 0 0 0] ------- [7:2 9:0 32 0] [8] 0 16777215
SFs 9.584453289 _7_ 57 [7 -> 9] 1(0) to 18 
SFf 9.590113121 _18_ 57 [7 -> 9] 1 to 6
SFf 9.596356658 _6_ 57 [7 -> 9] 1 to 9
r 9.602480362 _9_ AGT  --- 57 cbr 512 [13a 9 6 800] ------- [7:2 9:0 30 9] [8] 3 16777215
s 9.745334356 _1_ AGT  --- 58 cbr 512 [0 0 0 0] ------- [1:0 2:0 32 0] [27] 0 16777215
SFs 9.745334356 _1_ 58 [1 -> 2] 3(0) to 8 
SFf 9.751293080 _8_ 58 [1 -> 2] 3 to 16
SFf 9.757156474 _16_ 58 [1 -> 2] 3 to 2
r 9.763240152 _2_ AGT  --- 58 cbr 512 [13a 2 10 800] ------- [1:0 2:0 30 2] [27] 3 16777215
s 9.875466748 _7_ AGT  --- 59 cbr 512 [0 0 0 0] ------- [7:2 9:0 32 0] [9] 0 16777215
SFs 9.875466748 _7_ 59 [7 -> 9] 1(0) to 18 
SFf 9.881146580 _18_ 59 [7 -> 9] 1 to 6
SFf 9.887270118 _6_ 59 [7 -> 9] 1 to 9
r 9.893093821 _9_ AGT  --- 59 cbr 512 [13a 9 6 800] ------- [7:2 9:0 30 9] [9] 3 16777215
