Sconfig 0.00000 tap: on snoop: rts? on errs? on
Sconfig 0.00000 salvage: on !bd replies? on
Sconfig 0.00000 grat error: on grat reply: on
Sconfig 0.00000 $reply for props: on ring 0 search: on
Sconfig 0.00000 using MOBICACHE
s 1.000000000 _50_ AGT  --- 0 cbr 1000 [0 0 0 0] ------- [50:2 51:0 32 0] [0] 0 0
r 1.000000000 _50_ RTR  --- 0 cbr 1000 [0 0 0 0] ------- [50:2 51:0 32 0] [0] 0 0
s 1.004905453 _50_ RTR  --- 1 DSR 32 [0 0 0 0] ------- [50:255 51:255 32 0] 1 [1 1] [0 1 0 0->0] [0 0 0 0->0]
r 1.006125467 _51_ RTR  --- 1 DSR 32 [0 ffffffff 32 800] ------- [50:255 51:255 32 0] 1 [1 1] [0 1 0 0->0] [0 0 0 0->0]
r 1.006125471 _49_ RTR  --- 1 DSR 32 [0 ffffffff 32 800] ------- [50:255 51:255 32 0] 1 [1 1] [0 1 0 0->0] [0 0 0 0->0]
r 1.006125471 _48_ RTR  --- 1 DSR 32 [0 ffffffff 32 800] ------- [50:255 51:255 32 0] 1 [1 1] [0 1 0 0->0] [0 0 0 0->0]
r 1.006125471 _47_ RTR  --- 1 DSR 32 [0 ffffffff 32 800] ------- [50:255 51:255 32 0] 1 [1 1] [0 1 0 0->0] [0 0 0 0->0]
r 1.006125471 _46_ RTR  --- 1 DSR 32 [0 ffffffff 32 800] ------- [50:255 51:255 32 0] 1 [1 1] [0 1 0 0->0] [0 0 0 0->0]
r 1.006125471 _45_ RTR  --- 1 DSR 32 [0 ffffffff 32 800] ------- [50:255 51:255 32 0] 1 [1 1] [0 1 0 0->0] [0 0 0 0->0]
r 1.006125471 _44_ RTR  --- 1 DSR 32 [0 ffffffff 32 800] ------- [50:255 51:255 32 0] 1 [1 1] [0 1 0 0->0] [0 0 0 0->0]
r 1.006125471 _43_ RTR  --- 1 DSR 32 [0 ffffffff 32 800] ------- [50:255 51:255 32 0] 1 [1 1] [0 1 0 0->0] [0 0 0 0->0]
r 1.006125471 _42_ RTR  --- 1 DSR 32 [0 ffffffff 32 800] ------- [50:255 51:255 32 0] 1 [1 1] [0 1 0 0->0] [0 0 0 0->0]
r 1.006125471 _41_ RTR  --- 1 DSR 32 [0 ffffffff 32 800] ------- [50:255 51:255 32 0] 1 [1 1] [0 1 0 0->0] [0 0 0 0->0]
r 1.006125471 _40_ RTR  --- 1 DSR 32 [0 ffffffff 32 800] ------- [50:255 51:255 32 0] 1 [1 1] [0 1 0 0->0] [0 0 0 0->0]
r 1.006125471 _39_ RTR  --- 1 DSR 32 [0 ffffffff 32 800] ------- [50:255 51:255 32 0] 1 [1 1] [0 1 0 0->0] [0 0 0 0->0]
r 1.006125471 _38_ RTR  --- 1 DSR 32 [0 ffffffff 32 800] ------- [50:255 51:255 32 0] 1 [1 1] [0 1 0 0->0] [0 0 0 0->0]
r 1.006125471 _37_ RTR  --- 1 DSR 32 [0 ffffffff 32 800] ------- [50:255 51:255 32 0] 1 [1 1] [0 1 0 0->0] [0 0 0 0->0]
r 1.006125471 _36_ RTR  --- 1 DSR 32 [0 ffffffff 32 800] ------- [50:255 51:255 32 0] 1 [1 1] [0 1 0 0->0] [0 0 0 0->0]
r 1.006125471 _35_ RTR  --- 1 DSR 32 [0 ffffffff 32 800] ------- [50:255 51:255 32 0] 1 [1 1] [0 1 0 0->0] [0 0 0 0->0]
r 1.006125471 _34_ RTR  --- 1 DSR 32 [0 ffffffff 32 800] ------- [50:255 51:255 32 0] 1 [1 1] [0 1 0 0->0] [0 0 0 0->0]
r 1.006125471 _33_ RTR  --- 1 DSR 32 [0 ffffffff 32 800] ------- [50:255 51:255 32 0] 1 [1 1] [0 1 0 0->0] [0 0 0 0->0]
r 1.006125471 _32_ RTR  --- 1 DSR 32 [0 ffffffff 32 800] ------- [50:255 51:255 32 0] 1 [1 1] [0 1 0 0->0] [0 0 0 0->0]
r 1.006125471 _31_ RTR  --- 1 DSR 32 [0 ffffffff 32 800] ------- [50:255 51:255 32 0] 1 [1 1] [0 1 0 0->0] [0 0 0 0->0]
r 1.006125471 _30_ RTR  --- 1 DSR 32 [0 ffffffff 32 800] ------- [50:255 51:255 32 0] 1 [1 1] [0 1 0 0->0] [0 0 0 0->0]
r 1.006125471 _29_ RTR  --- 1 DSR 32 [0 ffffffff 32 800] ------- [50:255 51:255 32 0] 1 [1 1] [0 1 0 0->0] [0 0 0 0->0]
r 1.006125471 _28_ RTR  --- 1 DSR 32 [0 ffffffff 32 800] ------- [50:255 51:255 32 0] 1 [1 1] [0 1 0 0->0] [0 0 0 0->0]
r 1.006125471 _27_ RTR  --- 1 DSR 32 [0 ffffffff 32 800] ------- [50:255 51:255 32 0] 1 [1 1] [0 1 0 0->0] [0 0 0 0->0]
r 1.006125471 _26_ RTR  --- 1 DSR 32 [0 ffffffff 32 800] ------- [50:255 51:255 32 0] 1 [1 1] [0 1 0 0->0] [0 0 0 0->0]
r 1.006125471 _25_ RTR  --- 1 DSR 32 [0 ffffffff 32 800] ------- [50:255 51:255 32 0] 1 [1 1] [0 1 0 0->0] [0 0 0 0->0]
r 1.006125471 _24_ RTR  --- 1 DSR 32 [0 ffffffff 32 800] ------- [50:255 51:255 32 0] 1 [1 1] [0 1 0 0->0] [0 0 0 0->0]
r 1.006125471 _23_ RTR  --- 1 DSR 32 [0 ffffffff 32 800] ------- [50:255 51:255 32 0] 1 [1 1] [0 1 0 0->0] [0 0 0 0->0]
r 1.006125471 _22_ RTR  --- 1 DSR 32 [0 ffffffff 32 800] ------- [50:255 51:255 32 0] 1 [1 1] [0 1 0 0->0] [0 0 0 0->0]
r 1.006125471 _21_ RTR  --- 1 DSR 32 [0 ffffffff 32 800] ------- [50:255 51:255 32 0] 1 [1 1] [0 1 0 0->0] [0 0 0 0->0]
r 1.006125471 _20_ RTR  --- 1 DSR 32 [0 ffffffff 32 800] ------- [50:255 51:255 32 0] 1 [1 1] [0 1 0 0->0] [0 0 0 0->0]
r 1.006125471 _19_ RTR  --- 1 DSR 32 [0 ffffffff 32 800] ------- [50:255 51:255 32 0] 1 [1 1] [0 1 0 0->0] [0 0 0 0->0]
r 1.006125471 _18_ RTR  --- 1 DSR 32 [0 ffffffff 32 800] ------- [50:255 51:255 32 0] 1 [1 1] [0 1 0 0->0] [0 0 0 0->0]
r 1.006125471 _17_ RTR  --- 1 DSR 32 [0 ffffffff 32 800] ------- [50:255 51:255 32 0] 1 [1 1] [0 1 0 0->0] [0 0 0 0->0]
r 1.006125471 _16_ RTR  --- 1 DSR 32 [0 ffffffff 32 800] ------- [50:255 51:255 32 0] 1 [1 1] [0 1 0 0->0] [0 0 0 0->0]
r 1.006125471 _15_ RTR  --- 1 DSR 32 [0 ffffffff 32 800] ------- [50:255 51:255 32 0] 1 [1 1] [0 1 0 0->0] [0 0 0 0->0]
r 1.006125471 _14_ RTR  --- 1 DSR 32 [0 ffffffff 32 800] ------- [50:255 51:255 32 0] 1 [1 1] [0 1 0 0->0] [0 0 0 0->0]
r 1.006125471 _13_ RTR  --- 1 DSR 32 [0 ffffffff 32 800] ------- [50:255 51:255 32 0] 1 [1 1] [0 1 0 0->0] [0 0 0 0->0]
r 1.006125471 _12_ RTR  --- 1 DSR 32 [0 ffffffff 32 800] ------- [50:255 51:255 32 0] 1 [1 1] [0 1 0 0->0] [0 0 0 0->0]
r 1.006125471 _11_ RTR  --- 1 DSR 32 [0 ffffffff 32 800] ------- [50:255 51:255 32 0] 1 [1 1] [0 1 0 0->0] [0 0 0 0->0]
r 1.006125471 _10_ RTR  --- 1 DSR 32 [0 ffffffff 32 800] ------- [50:255 51:255 32 0] 1 [1 1] [0 1 0 0->0] [0 0 0 0->0]
r 1.006125471 _9_ RTR  --- 1 DSR 32 [0 ffffffff 32 800] ------- [50:255 51:255 32 0] 1 [1 1] [0 1 0 0->0] [0 0 0 0->0]
r 1.006125471 _8_ RTR  --- 1 DSR 32 [0 ffffffff 32 800] ------- [50:255 51:255 32 0] 1 [1 1] [0 1 0 0->0] [0 0 0 0->0]
r 1.006125471 _7_ RTR  --- 1 DSR 32 [0 ffffffff 32 800] ------- [50:255 51:255 32 0] 1 [1 1] [0 1 0 0->0] [0 0 0 0->0]
r 1.006125471 _6_ RTR  --- 1 DSR 32 [0 ffffffff 32 800] ------- [50:255 51:255 32 0] 1 [1 1] [0 1 0 0->0] [0 0 0 0->0]
r 1.006125471 _5_ RTR  --- 1 DSR 32 [0 ffffffff 32 800] ------- [50:255 51:255 32 0] 1 [1 1] [0 1 0 0->0] [0 0 0 0->0]
r 1.006125471 _4_ RTR  --- 1 DSR 32 [0 ffffffff 32 800] ------- [50:255 51:255 32 0] 1 [1 1] [0 1 0 0->0] [0 0 0 0->0]
r 1.006125471 _3_ RTR  --- 1 DSR 32 [0 ffffffff 32 800] ------- [50:255 51:255 32 0] 1 [1 1] [0 1 0 0->0] [0 0 0 0->0]
r 1.006125471 _2_ RTR  --- 1 DSR 32 [0 ffffffff 32 800] ------- [50:255 51:255 32 0] 1 [1 1] [0 1 0 0->0] [0 0 0 0->0]
r 1.006125471 _1_ RTR  --- 1 DSR 32 [0 ffffffff 32 800] ------- [50:255 51:255 32 0] 1 [1 1] [0 1 0 0->0] [0 0 0 0->0]
r 1.006125471 _0_ RTR  --- 1 DSR 32 [0 ffffffff 32 800] ------- [50:255 51:255 32 0] 1 [1 1] [0 1 0 0->0] [0 0 0 0->0]
s 1.013795392 _51_ RTR  --- 2 DSR 44 [0 0 0 0] ------- [51:255 50:255 254 50] 2 [0 1] [1 1 2 50->51] [0 0 0 0->0]
s 1.015000000 _50_ AGT  --- 3 cbr 1000 [0 0 0 0] ------- [50:2 51:0 32 0] [1] 0 0
r 1.015000000 _50_ RTR  --- 3 cbr 1000 [0 0 0 0] ------- [50:2 51:0 32 0] [1] 0 0
r 1.018138491 _50_ RTR  --- 2 DSR 44 [13a 32 33 800] ------- [51:255 50:255 254 50] 2 [0 1] [1 1 2 50->51] [0 0 0 0->0]
SFESTs 1.018138491 _50_ 0 [50 -> 51] 1(1) to 51 [50 |51 ]
SFESTs 1.018138491 _50_ 3 [50 -> 51] 1(1) to 51 [50 |51 ]
s 1.018138491 _50_ RTR  --- 0 cbr 1036 [0 0 0 0] ------- [50:2 51:0 32 51] [0] 0 0
r 1.028330534 _51_ RTR  --- 0 cbr 1036 [13a 33 32 800] ------- [50:2 51:0 32 51] [0] 1 0
r 1.028330534 _51_ AGT  --- 0 cbr 1000 [13a 33 32 800] ------- [50:2 51:0 32 51] [0] 1 0
s 1.030000000 _50_ AGT  --- 5 cbr 1000 [0 0 0 0] ------- [50:2 51:0 32 0] [2] 0 0
r 1.030000000 _50_ RTR  --- 5 cbr 1000 [0 0 0 0] ------- [50:2 51:0 32 0] [2] 0 0
SFESTs 1.030000000 _50_ 5 [50 -> 51] 1(1) to 51 [50 |51 ]
s 1.030000000 _50_ RTR  --- 5 cbr 1036 [0 0 0 0] ------- [50:2 51:0 32 51] [2] 0 0
r 1.039728042 _51_ RTR  --- 5 cbr 1036 [13a 33 32 800] ------- [50:2 51:0 32 51] [2] 1 0
r 1.039728042 _51_ AGT  --- 5 cbr 1000 [13a 33 32 800] ------- [50:2 51:0 32 51] [2] 1 0
s 1.045000000 _50_ AGT  --- 6 cbr 1000 [0 0 0 0] ------- [50:2 51:0 32 0] [3] 0 0
r 1.045000000 _50_ RTR  --- 6 cbr 1000 [0 0 0 0] ------- [50:2 51:0 32 0] [3] 0 0
SFs 1.045000000 _50_ 6 [50 -> 51] 1(0) to 51 
s 1.045000000 _50_ RTR  --- 6 cbr 1020 [0 0 0 0] ------- [50:2 51:0 32 51] [3] 0 0
s 1.048138491 _50_ RTR  --- 3 cbr 1036 [0 0 0 0] ------- [50:2 51:0 32 51] [1] 0 0
r 1.054920042 _51_ RTR  --- 6 cbr 1020 [13a 33 32 800] ------- [50:2 51:0 32 51] [3] 1 0
r 1.054920042 _51_ AGT  --- 6 cbr 1000 [13a 33 32 800] ------- [50:2 51:0 32 51] [3] 1 0
s 1.060000000 _50_ AGT  --- 7 cbr 1000 [0 0 0 0] ------- [50:2 51:0 32 0] [4] 0 0
r 1.060000000 _50_ RTR  --- 7 cbr 1000 [0 0 0 0] ------- [50:2 51:0 32 0] [4] 0 0
SFs 1.060000000 _50_ 7 [50 -> 51] 1(0) to 51 
s 1.060000000 _50_ RTR  --- 7 cbr 1020 [0 0 0 0] ------- [50:2 51:0 32 51] [4] 0 0
r 1.065312099 _51_ RTR  --- 3 cbr 1036 [13a 33 32 800] ------- [50:2 51:0 32 51] [1] 1 0
r 1.065312099 _51_ AGT  --- 3 cbr 1000 [13a 33 32 800] ------- [50:2 51:0 32 51] [1] 1 0
s 1.075000000 _50_ AGT  --- 8 cbr 1000 [0 0 0 0] ------- [50:2 51:0 32 0] [5] 0 0
r 1.075000000 _50_ RTR  --- 8 cbr 1000 [0 0 0 0] ------- [50:2 51:0 32 0] [5] 0 0
SFs 1.075000000 _50_ 8 [50 -> 51] 1(0) to 51 
s 1.075000000 _50_ RTR  --- 8 cbr 1020 [0 0 0 0] ------- [50:2 51:0 32 51] [5] 0 0
r 1.075556156 _51_ RTR  --- 7 cbr 1020 [13a 33 32 800] ------- [50:2 51:0 32 51] [4] 1 0
r 1.075556156 _51_ AGT  --- 7 cbr 1000 [13a 33 32 800] ------- [50:2 51:0 32 51] [4] 1 0
r 1.085480212 _51_ RTR  --- 8 cbr 1020 [13a 33 32 800] ------- [50:2 51:0 32 51] [5] 1 0
r 1.085480212 _51_ AGT  --- 8 cbr 1000 [13a 33 32 800] ------- [50:2 51:0 32 51] [5] 1 0
s 1.090000000 _50_ AGT  --- 9 cbr 1000 [0 0 0 0] ------- [50:2 51:0 32 0] [6] 0 0
r 1.090000000 _50_ RTR  --- 9 cbr 1000 [0 0 0 0] ------- [50:2 51:0 32 0] [6] 0 0
SFs 1.090000000 _50_ 9 [50 -> 51] 1(0) to 51 
s 1.090000000 _50_ RTR  --- 9 cbr 1020 [0 0 0 0] ------- [50:2 51:0 32 51] [6] 0 0
r 1.099780042 _51_ RTR  --- 9 cbr 1020 [13a 33 32 800] ------- [50:2 51:0 32 51] [6] 1 0
r 1.099780042 _51_ AGT  --- 9 cbr 1000 [13a 33 32 800] ------- [50:2 51:0 32 51] [6] 1 0
s 1.105000000 _50_ AGT  --- 10 cbr 1000 [0 0 0 0] ------- [50:2 51:0 32 0] [7] 0 0
r 1.105000000 _50_ RTR  --- 10 cbr 1000 [0 0 0 0] ------- [50:2 51:0 32 0] [7] 0 0
SFs 1.105000000 _50_ 10 [50 -> 51] 1(0) to 51 
s 1.105000000 _50_ RTR  --- 10 cbr 1020 [0 0 0 0] ------- [50:2 51:0 32 51] [7] 0 0
r 1.114600042 _51_ RTR  --- 10 cbr 1020 [13a 33 32 800] ------- [50:2 51:0 32 51] [7] 1 0
r 1.114600042 _51_ AGT  --- 10 cbr 1000 [13a 33 32 800] ------- [50:2 51:0 32 51] [7] 1 0
s 1.120000000 _50_ AGT  --- 11 cbr 1000 [0 0 0 0] ------- [50:2 51:0 32 0] [8] 0 0
r 1.120000000 _50_ RTR  --- 11 cbr 1000 [0 0 0 0] ------- [50:2 51:0 32 0] [8] 0 0
SFs 1.120000000 _50_ 11 [50 -> 51] 1(0) to 51 
s 1.120000000 _50_ RTR  --- 11 cbr 1020 [0 0 0 0] ------- [50:2 51:0 32 51] [8] 0 0
r 1.129940042 _51_ RTR  --- 11 cbr 1020 [13a 33 32 800] ------- [50:2 51:0 32 51] [8] 1 0
r 1.129940042 _51_ AGT  --- 11 cbr 1000 [13a 33 32 800] ------- [50:2 51:0 32 51] [8] 1 0
s 1.135000000 _50_ AGT  --- 12 cbr 1000 [0 0 0 0] ------- [50:2 51:0 32 0] [9] 0 0
r 1.135000000 _50_ RTR  --- 12 cbr 1000 [0 0 0 0] ------- [50:2 51:0 32 0] [9] 0 0
SFs 1.135000000 _50_ 12 [50 -> 51] 1(0) to 51 
s 1.135000000 _50_ RTR  --- 12 cbr 1020 [0 0 0 0] ------- [50:2 51:0 32 51] [9] 0 0
r 1.144900042 _51_ RTR  --- 12 cbr 1020 [13a 33 32 800] ------- [50:2 51:0 32 51] [9] 1 0
r 1.144900042 _51_ AGT  --- 12 cbr 1000 [13a 33 32 800] ------- [50:2 51:0 32 51] [9] 1 0
s 1.150000000 _50_ AGT  --- 13 cbr 1000 [0 0 0 0] ------- [50:2 51:0 32 0] [10] 0 0
r 1.150000000 _50_ RTR  --- 13 cbr 1000 [0 0 0 0] ------- [50:2 51:0 32 0] [10] 0 0
SFs 1.150000000 _50_ 13 [50 -> 51] 1(0) to 51 
s 1.150000000 _50_ RTR  --- 13 cbr 1020 [0 0 0 0] ------- [50:2 51:0 32 51] [10] 0 0
r 1.159780042 _51_ RTR  --- 13 cbr 1020 [13a 33 32 800] ------- [50:2 51:0 32 51] [10] 1 0
r 1.159780042 _51_ AGT  --- 13 cbr 1000 [13a 33 32 800] ------- [50:2 51:0 32 51] [10] 1 0
s 1.165000000 _50_ AGT  --- 14 cbr 1000 [0 0 0 0] ------- [50:2 51:0 32 0] [11] 0 0
r 1.165000000 _50_ RTR  --- 14 cbr 1000 [0 0 0 0] ------- [50:2 51:0 32 0] [11] 0 0
SFs 1.165000000 _50_ 14 [50 -> 51] 1(0) to 51 
s 1.165000000 _50_ RTR  --- 14 cbr 1020 [0 0 0 0] ------- [50:2 51:0 32 51] [11] 0 0
r 1.174580042 _51_ RTR  --- 14 cbr 1020 [13a 33 32 800] ------- [50:2 51:0 32 51] [11] 1 0
r 1.174580042 _51_ AGT  --- 14 cbr 1000 [13a 33 32 800] ------- [50:2 51:0 32 51] [11] 1 0
s 1.180000000 _50_ AGT  --- 15 cbr 1000 [0 0 0 0] ------- [50:2 51:0 32 0] [12] 0 0
r 1.180000000 _50_ RTR  --- 15 cbr 1000 [0 0 0 0] ------- [50:2 51:0 32 0] [12] 0 0
SFs 1.180000000 _50_ 15 [50 -> 51] 1(0) to 51 
s 1.180000000 _50_ RTR  --- 15 cbr 1020 [0 0 0 0] ------- [50:2 51:0 32 51] [12] 0 0
r 1.190000042 _51_ RTR  --- 15 cbr 1020 [13a 33 32 800] ------- [50:2 51:0 32 51] [12] 1 0
r 1.190000042 _51_ AGT  --- 15 cbr 1000 [13a 33 32 800] ------- [50:2 51:0 32 51] [12] 1 0
s 1.195000000 _50_ AGT  --- 16 cbr 1000 [0 0 0 0] ------- [50:2 51:0 32 0] [13] 0 0
r 1.195000000 _50_ RTR  --- 16 cbr 1000 [0 0 0 0] ------- [50:2 51:0 32 0] [13] 0 0
SFs 1.195000000 _50_ 16 [50 -> 51] 1(0) to 51 
s 1.195000000 _50_ RTR  --- 16 cbr 1020 [0 0 0 0] ------- [50:2 51:0 32 51] [13] 0 0
r 1.204940042 _51_ RTR  --- 16 cbr 1020 [13a 33 32 800] ------- [50:2 51:0 32 51] [13] 1 0
r 1.204940042 _51_ AGT  --- 16 cbr 1000 [13a 33 32 800] ------- [50:2 51:0 32 51] [13] 1 0
s 1.210000000 _50_ AGT  --- 17 cbr 1000 [0 0 0 0] ------- [50:2 51:0 32 0] [14] 0 0
r 1.210000000 _50_ RTR  --- 17 cbr 1000 [0 0 0 0] ------- [50:2 51:0 32 0] [14] 0 0
SFs 1.210000000 _50_ 17 [50 -> 51] 1(0) to 51 
s 1.210000000 _50_ RTR  --- 17 cbr 1020 [0 0 0 0] ------- [50:2 51:0 32 51] [14] 0 0
r 1.219540042 _51_ RTR  --- 17 cbr 1020 [13a 33 32 800] ------- [50:2 51:0 32 51] [14] 1 0
r 1.219540042 _51_ AGT  --- 17 cbr 1000 [13a 33 32 800] ------- [50:2 51:0 32 51] [14] 1 0
s 1.225000000 _50_ AGT  --- 18 cbr 1000 [0 0 0 0] ------- [50:2 51:0 32 0] [15] 0 0
r 1.225000000 _50_ RTR  --- 18 cbr 1000 [0 0 0 0] ------- [50:2 51:0 32 0] [15] 0 0
SFs 1.225000000 _50_ 18 [50 -> 51] 1(0) to 51 
s 1.225000000 _50_ RTR  --- 18 cbr 1020 [0 0 0 0] ------- [50:2 51:0 32 51] [15] 0 0
r 1.234820042 _51_ RTR  --- 18 cbr 1020 [13a 33 32 800] ------- [50:2 51:0 32 51] [15] 1 0
r 1.234820042 _51_ AGT  --- 18 cbr 1000 [13a 33 32 800] ------- [50:2 51:0 32 51] [15] 1 0
s 1.240000000 _50_ AGT  --- 19 cbr 1000 [0 0 0 0] ------- [50:2 51:0 32 0] [16] 0 0
r 1.240000000 _50_ RTR  --- 19 cbr 1000 [0 0 0 0] ------- [50:2 51:0 32 0] [16] 0 0
SFs 1.240000000 _50_ 19 [50 -> 51] 1(0) to 51 
s 1.240000000 _50_ RTR  --- 19 cbr 1020 [0 0 0 0] ------- [50:2 51:0 32 51] [16] 0 0
r 1.249420042 _51_ RTR  --- 19 cbr 1020 [13a 33 32 800] ------- [50:2 51:0 32 51] [16] 1 0
r 1.249420042 _51_ AGT  --- 19 cbr 1000 [13a 33 32 800] ------- [50:2 51:0 32 51] [16] 1 0
s 1.255000000 _50_ AGT  --- 20 cbr 1000 [0 0 0 0] ------- [50:2 51:0 32 0] [17] 0 0
r 1.255000000 _50_ RTR  --- 20 cbr 1000 [0 0 0 0] ------- [50:2 51:0 32 0] [17] 0 0
SFs 1.255000000 _50_ 20 [50 -> 51] 1(0) to 51 
s 1.255000000 _50_ RTR  --- 20 cbr 1020 [0 0 0 0] ------- [50:2 51:0 32 51] [17] 0 0
r 1.264900042 _51_ RTR  --- 20 cbr 1020 [13a 33 32 800] ------- [50:2 51:0 32 51] [17] 1 0
r 1.264900042 _51_ AGT  --- 20 cbr 1000 [13a 33 32 800] ------- [50:2 51:0 32 51] [17] 1 0
s 1.270000000 _50_ AGT  --- 21 cbr 1000 [0 0 0 0] ------- [50:2 51:0 32 0] [18] 0 0
r 1.270000000 _50_ RTR  --- 21 cbr 1000 [0 0 0 0] ------- [50:2 51:0 32 0] [18] 0 0
SFs 1.270000000 _50_ 21 [50 -> 51] 1(0) to 51 
s 1.270000000 _50_ RTR  --- 21 cbr 1020 [0 0 0 0] ------- [50:2 51:0 32 51] [18] 0 0
r 1.279900042 _51_ RTR  --- 21 cbr 1020 [13a 33 32 800] ------- [50:2 51:0 32 51] [18] 1 0
r 1.279900042 _51_ AGT  --- 21 cbr 1000 [13a 33 32 800] ------- [50:2 51:0 32 51] [18] 1 0
s 1.285000000 _50_ AGT  --- 22 cbr 1000 [0 0 0 0] ------- [50:2 51:0 32 0] [19] 0 0
r 1.285000000 _50_ RTR  --- 22 cbr 1000 [0 0 0 0] ------- [50:2 51:0 32 0] [19] 0 0
SFs 1.285000000 _50_ 22 [50 -> 51] 1(0) to 51 
s 1.285000000 _50_ RTR  --- 22 cbr 1020 [0 0 0 0] ------- [50:2 51:0 32 51] [19] 0 0
r 1.295000042 _51_ RTR  --- 22 cbr 1020 [13a 33 32 800] ------- [50:2 51:0 32 51] [19] 1 0
r 1.295000042 _51_ AGT  --- 22 cbr 1000 [13a 33 32 800] ------- [50:2 51:0 32 51] [19] 1 0
s 1.300000000 _50_ AGT  --- 23 cbr 1000 [0 0 0 0] ------- [50:2 51:0 32 0] [20] 0 0
r 1.300000000 _50_ RTR  --- 23 cbr 1000 [0 0 0 0] ------- [50:2 51:0 32 0] [20] 0 0
SFs 1.300000000 _50_ 23 [50 -> 51] 1(0) to 51 
s 1.300000000 _50_ RTR  --- 23 cbr 1020 [0 0 0 0] ------- [50:2 51:0 32 51] [20] 0 0
r 1.309940042 _51_ RTR  --- 23 cbr 1020 [13a 33 32 800] ------- [50:2 51:0 32 51] [20] 1 0
r 1.309940042 _51_ AGT  --- 23 cbr 1000 [13a 33 32 800] ------- [50:2 51:0 32 51] [20] 1 0
s 1.315000000 _50_ AGT  --- 24 cbr 1000 [0 0 0 0] ------- [50:2 51:0 32 0] [21] 0 0
r 1.315000000 _50_ RTR  --- 24 cbr 1000 [0 0 0 0] ------- [50:2 51:0 32 0] [21] 0 0
SFs 1.315000000 _50_ 24 [50 -> 51] 1(0) to 51 
s 1.315000000 _50_ RTR  --- 24 cbr 1020 [0 0 0 0] ------- [50:2 51:0 32 51] [21] 0 0
r 1.324840042 _51_ RTR  --- 24 cbr 1020 [13a 33 32 800] ------- [50:2 51:0 32 51] [21] 1 0
r 1.324840042 _51_ AGT  --- 24 cbr 1000 [13a 33 32 800] ------- [50:2 51:0 32 51] [21] 1 0
s 1.330000000 _50_ AGT  --- 25 cbr 1000 [0 0 0 0] ------- [50:2 51:0 32 0] [22] 0 0
r 1.330000000 _50_ RTR  --- 25 cbr 1000 [0 0 0 0] ------- [50:2 51:0 32 0] [22] 0 0
SFs 1.330000000 _50_ 25 [50 -> 51] 1(0) to 51 
s 1.330000000 _50_ RTR  --- 25 cbr 1020 [0 0 0 0] ------- [50:2 51:0 32 51] [22] 0 0
r 1.339580042 _51_ RTR  --- 25 cbr 1020 [13a 33 32 800] ------- [50:2 51:0 32 51] [22] 1 0
r 1.339580042 _51_ AGT  --- 25 cbr 1000 [13a 33 32 800] ------- [50:2 51:0 32 51] [22] 1 0
s 1.345000000 _50_ AGT  --- 26 cbr 1000 [0 0 0 0] ------- [50:2 51:0 32 0] [23] 0 0
r 1.345000000 _50_ RTR  --- 26 cbr 1000 [0 0 0 0] ------- [50:2 51:0 32 0] [23] 0 0
SFs 1.345000000 _50_ 26 [50 -> 51] 1(0) to 51 
s 1.345000000 _50_ RTR  --- 26 cbr 1020 [0 0 0 0] ------- [50:2 51:0 32 51] [23] 0 0
r 1.354680042 _51_ RTR  --- 26 cbr 1020 [13a 33 32 800] ------- [50:2 51:0 32 51] [23] 1 0
r 1.354680042 _51_ AGT  --- 26 cbr 1000 [13a 33 32 800] ------- [50:2 51:0 32 51] [23] 1 0
s 1.360000000 _50_ AGT  --- 27 cbr 1000 [0 0 0 0] ------- [50:2 51:0 32 0] [24] 0 0
r 1.360000000 _50_ RTR  --- 27 cbr 1000 [0 0 0 0] ------- [50:2 51:0 32 0] [24] 0 0
SFs 1.360000000 _50_ 27 [50 -> 51] 1(0) to 51 
s 1.360000000 _50_ RTR  --- 27 cbr 1020 [0 0 0 0] ------- [50:2 51:0 32 51] [24] 0 0
r 1.369800042 _51_ RTR  --- 27 cbr 1020 [13a 33 32 800] ------- [50:2 51:0 32 51] [24] 1 0
r 1.369800042 _51_ AGT  --- 27 cbr 1000 [13a 33 32 800] ------- [50:2 51:0 32 51] [24] 1 0
s 1.375000000 _50_ AGT  --- 28 cbr 1000 [0 0 0 0] ------- [50:2 51:0 32 0] [25] 0 0
r 1.375000000 _50_ RTR  --- 28 cbr 1000 [0 0 0 0] ------- [50:2 51:0 32 0] [25] 0 0
SFs 1.375000000 _50_ 28 [50 -> 51] 1(0) to 51 
s 1.375000000 _50_ RTR  --- 28 cbr 1020 [0 0 0 0] ------- [50:2 51:0 32 51] [25] 0 0
r 1.385000042 _51_ RTR  --- 28 cbr 1020 [13a 33 32 800] ------- [50:2 51:0 32 51] [25] 1 0
r 1.385000042 _51_ AGT  --- 28 cbr 1000 [13a 33 32 800] ------- [50:2 51:0 32 51] [25] 1 0
s 1.390000000 _50_ AGT  --- 29 cbr 1000 [0 0 0 0] ------- [50:2 51:0 32 0] [26] 0 0
r 1.390000000 _50_ RTR  --- 29 cbr 1000 [0 0 0 0] ------- [50:2 51:0 32 0] [26] 0 0
SFs 1.390000000 _50_ 29 [50 -> 51] 1(0) to 51 
s 1.390000000 _50_ RTR  --- 29 cbr 1020 [0 0 0 0] ------- [50:2 51:0 32 51] [26] 0 0
r 1.399720042 _51_ RTR  --- 29 cbr 1020 [13a 33 32 800] ------- [50:2 51:0 32 51] [26] 1 0
r 1.399720042 _51_ AGT  --- 29 cbr 1000 [13a 33 32 800] ------- [50:2 51:0 32 51] [26] 1 0
s 1.405000000 _50_ AGT  --- 30 cbr 1000 [0 0 0 0] ------- [50:2 51:0 32 0] [27] 0 0
r 1.405000000 _50_ RTR  --- 30 cbr 1000 [0 0 0 0] ------- [50:2 51:0 32 0] [27] 0 0
SFs 1.405000000 _50_ 30 [50 -> 51] 1(0) to 51 
s 1.405000000 _50_ RTR  --- 30 cbr 1020 [0 0 0 0] ------- [50:2 51:0 32 51] [27] 0 0
r 1.414540042 _51_ RTR  --- 30 cbr 1020 [13a 33 32 800] ------- [50:2 51:0 32 51] [27] 1 0
r 1.414540042 _51_ AGT  --- 30 cbr 1000 [13a 33 32 800] ------- [50:2 51:0 32 51] [27] 1 0
s 1.420000000 _50_ AGT  --- 31 cbr 1000 [0 0 0 0] ------- [50:2 51:0 32 0] [28] 0 0
r 1.420000000 _50_ RTR  --- 31 cbr 1000 [0 0 0 0] ------- [50:2 51:0 32 0] [28] 0 0
SFs 1.420000000 _50_ 31 [50 -> 51] 1(0) to 51 
s 1.420000000 _50_ RTR  --- 31 cbr 1020 [0 0 0 0] ------- [50:2 51:0 32 51] [28] 0 0
r 1.429560042 _51_ RTR  --- 31 cbr 1020 [13a 33 32 800] ------- [50:2 51:0 32 51] [28] 1 0
r 1.429560042 _51_ AGT  --- 31 cbr 1000 [13a 33 32 800] ------- [50:2 51:0 32 51] [28] 1 0
s 1.435000000 _50_ AGT  --- 32 cbr 1000 [0 0 0 0] ------- [50:2 51:0 32 0] [29] 0 0
r 1.435000000 _50_ RTR  --- 32 cbr 1000 [0 0 0 0] ------- [50:2 51:0 32 0] [29] 0 0
SFs 1.435000000 _50_ 32 [50 -> 51] 1(0) to 51 
s 1.435000000 _50_ RTR  --- 32 cbr 1020 [0 0 0 0] ------- [50:2 51:0 32 51] [29] 0 0
r 1.445000042 _51_ RTR  --- 32 cbr 1020 [13a 33 32 800] ------- [50:2 51:0 32 51] [29] 1 0
r 1.445000042 _51_ AGT  --- 32 cbr 1000 [13a 33 32 800] ------- [50:2 51:0 32 51] [29] 1 0
s 1.450000000 _50_ AGT  --- 33 cbr 1000 [0 0 0 0] ------- [50:2 51:0 32 0] [30] 0 0
r 1.450000000 _50_ RTR  --- 33 cbr 1000 [0 0 0 0] ------- [50:2 51:0 32 0] [30] 0 0
SFs 1.450000000 _50_ 33 [50 -> 51] 1(0) to 51 
s 1.450000000 _50_ RTR  --- 33 cbr 1020 [0 0 0 0] ------- [50:2 51:0 32 51] [30] 0 0
r 1.459520042 _51_ RTR  --- 33 cbr 1020 [13a 33 32 800] ------- [50:2 51:0 32 51] [30] 1 0
r 1.459520042 _51_ AGT  --- 33 cbr 1000 [13a 33 32 800] ------- [50:2 51:0 32 51] [30] 1 0
s 1.465000000 _50_ AGT  --- 34 cbr 1000 [0 0 0 0] ------- [50:2 51:0 32 0] [31] 0 0
r 1.465000000 _50_ RTR  --- 34 cbr 1000 [0 0 0 0] ------- [50:2 51:0 32 0] [31] 0 0
SFs 1.465000000 _50_ 34 [50 -> 51] 1(0) to 51 
s 1.465000000 _50_ RTR  --- 34 cbr 1020 [0 0 0 0] ------- [50:2 51:0 32 51] [31] 0 0
r 1.474600042 _51_ RTR  --- 34 cbr 1020 [13a 33 32 800] ------- [50:2 51:0 32 51] [31] 1 0
r 1.474600042 _51_ AGT  --- 34 cbr 1000 [13a 33 32 800] ------- [50:2 51:0 32 51] [31] 1 0
s 1.480000000 _50_ AGT  --- 35 cbr 1000 [0 0 0 0] ------- [50:2 51:0 32 0] [32] 0 0
r 1.480000000 _50_ RTR  --- 35 cbr 1000 [0 0 0 0] ------- [50:2 51:0 32 0] [32] 0 0
SFs 1.480000000 _50_ 35 [50 -> 51] 1(0) to 51 
s 1.480000000 _50_ RTR  --- 35 cbr 1020 [0 0 0 0] ------- [50:2 51:0 32 51] [32] 0 0
r 1.489760042 _51_ RTR  --- 35 cbr 1020 [13a 33 32 800] ------- [50:2 51:0 32 51] [32] 1 0
r 1.489760042 _51_ AGT  --- 35 cbr 1000 [13a 33 32 800] ------- [50:2 51:0 32 51] [32] 1 0
s 1.495000000 _50_ AGT  --- 36 cbr 1000 [0 0 0 0] ------- [50:2 51:0 32 0] [33] 0 0
r 1.495000000 _50_ RTR  --- 36 cbr 1000 [0 0 0 0] ------- [50:2 51:0 32 0] [33] 0 0
SFs 1.495000000 _50_ 36 [50 -> 51] 1(0) to 51 
s 1.495000000 _50_ RTR  --- 36 cbr 1020 [0 0 0 0] ------- [50:2 51:0 32 51] [33] 0 0
r 1.504800042 _51_ RTR  --- 36 cbr 1020 [13a 33 32 800] ------- [50:2 51:0 32 51] [33] 1 0
r 1.504800042 _51_ AGT  --- 36 cbr 1000 [13a 33 32 800] ------- [50:2 51:0 32 51] [33] 1 0
s 1.510000000 _50_ AGT  --- 37 cbr 1000 [0 0 0 0] ------- [50:2 51:0 32 0] [34] 0 0
r 1.510000000 _50_ RTR  --- 37 cbr 1000 [0 0 0 0] ------- [50:2 51:0 32 0] [34] 0 0
SFs 1.510000000 _50_ 37 [50 -> 51] 1(0) to 51 
s 1.510000000 _50_ RTR  --- 37 cbr 1020 [0 0 0 0] ------- [50:2 51:0 32 51] [34] 0 0
r 1.519560042 _51_ RTR  --- 37 cbr 1020 [13a 33 32 800] ------- [50:2 51:0 32 51] [34] 1 0
r 1.519560042 _51_ AGT  --- 37 cbr 1000 [13a 33 32 800] ------- [50:2 51:0 32 51] [34] 1 0
s 1.525000000 _50_ AGT  --- 38 cbr 1000 [0 0 0 0] ------- [50:2 51:0 32 0] [35] 0 0
r 1.525000000 _50_ RTR  --- 38 cbr 1000 [0 0 0 0] ------- [50:2 51:0 32 0] [35] 0 0
SFs 1.525000000 _50_ 38 [50 -> 51] 1(0) to 51 
s 1.525000000 _50_ RTR  --- 38 cbr 1020 [0 0 0 0] ------- [50:2 51:0 32 51] [35] 0 0
r 1.534740042 _51_ RTR  --- 38 cbr 1020 [13a 33 32 800] ------- [50:2 51:0 32 51] [35] 1 0
r 1.534740042 _51_ AGT  --- 38 cbr 1000 [13a 33 32 800] ------- [50:2 51:0 32 51] [35] 1 0
s 1.540000000 _50_ AGT  --- 39 cbr 1000 [0 0 0 0] ------- [50:2 51:0 32 0] [36] 0 0
r 1.540000000 _50_ RTR  --- 39 cbr 1000 [0 0 0 0] ------- [50:2 51:0 32 0] [36] 0 0
SFs 1.540000000 _50_ 39 [50 -> 51] 1(0) to 51 
s 1.540000000 _50_ RTR  --- 39 cbr 1020 [0 0 0 0] ------- [50:2 51:0 32 51] [36] 0 0
r 1.549560042 _51_ RTR  --- 39 cbr 1020 [13a 33 32 800] ------- [50:2 51:0 32 51] [36] 1 0
r 1.549560042 _51_ AGT  --- 39 cbr 1000 [13a 33 32 800] ------- [50:2 51:0 32 51] [36] 1 0
s 1.555000000 _50_ AGT  --- 40 cbr 1000 [0 0 0 0] ------- [50:2 51:0 32 0] [37] 0 0
r 1.555000000 _50_ RTR  --- 40 cbr 1000 [0 0 0 0] ------- [50:2 51:0 32 0] [37] 0 0
SFs 1.555000000 _50_ 40 [50 -> 51] 1(0) to 51 
s 1.555000000 _50_ RTR  --- 40 cbr 1020 [0 0 0 0] ------- [50:2 51:0 32 51] [37] 0 0
r 1.564760042 _51_ RTR  --- 40 cbr 1020 [13a 33 32 800] ------- [50:2 51:0 32 51] [37] 1 0
r 1.564760042 _51_ AGT  --- 40 cbr 1000 [13a 33 32 800] ------- [50:2 51:0 32 51] [37] 1 0
s 1.570000000 _50_ AGT  --- 41 cbr 1000 [0 0 0 0] ------- [50:2 51:0 32 0] [38] 0 0
r 1.570000000 _50_ RTR  --- 41 cbr 1000 [0 0 0 0] ------- [50:2 51:0 32 0] [38] 0 0
SFs 1.570000000 _50_ 41 [50 -> 51] 1(0) to 51 
s 1.570000000 _50_ RTR  --- 41 cbr 1020 [0 0 0 0] ------- [50:2 51:0 32 51] [38] 0 0
r 1.579920042 _51_ RTR  --- 41 cbr 1020 [13a 33 32 800] ------- [50:2 51:0 32 51] [38] 1 0
r 1.579920042 _51_ AGT  --- 41 cbr 1000 [13a 33 32 800] ------- [50:2 51:0 32 51] [38] 1 0
s 1.585000000 _50_ AGT  --- 42 cbr 1000 [0 0 0 0] ------- [50:2 51:0 32 0] [39] 0 0
r 1.585000000 _50_ RTR  --- 42 cbr 1000 [0 0 0 0] ------- [50:2 51:0 32 0] [39] 0 0
SFs 1.585000000 _50_ 42 [50 -> 51] 1(0) to 51 
s 1.585000000 _50_ RTR  --- 42 cbr 1020 [0 0 0 0] ------- [50:2 51:0 32 51] [39] 0 0
r 1.594460042 _51_ RTR  --- 42 cbr 1020 [13a 33 32 800] ------- [50:2 51:0 32 51] [39] 1 0
r 1.594460042 _51_ AGT  --- 42 cbr 1000 [13a 33 32 800] ------- [50:2 51:0 32 51] [39] 1 0
s 1.600000000 _50_ AGT  --- 43 cbr 1000 [0 0 0 0] ------- [50:2 51:0 32 0] [40] 0 0
r 1.600000000 _50_ RTR  --- 43 cbr 1000 [0 0 0 0] ------- [50:2 51:0 32 0] [40] 0 0
SFs 1.600000000 _50_ 43 [50 -> 51] 1(0) to 51 
s 1.600000000 _50_ RTR  --- 43 cbr 1020 [0 0 0 0] ------- [50:2 51:0 32 51] [40] 0 0
r 1.609780042 _51_ RTR  --- 43 cbr 1020 [13a 33 32 800] ------- [50:2 51:0 32 51] [40] 1 0
r 1.609780042 _51_ AGT  --- 43 cbr 1000 [13a 33 32 800] ------- [50:2 51:0 32 51] [40] 1 0
s 1.615000000 _50_ AGT  --- 44 cbr 1000 [0 0 0 0] ------- [50:2 51:0 32 0] [41] 0 0
r 1.615000000 _50_ RTR  --- 44 cbr 1000 [0 0 0 0] ------- [50:2 51:0 32 0] [41] 0 0
SFs 1.615000000 _50_ 44 [50 -> 51] 1(0) to 51 
s 1.615000000 _50_ RTR  --- 44 cbr 1020 [0 0 0 0] ------- [50:2 51:0 32 51] [41] 0 0
r 1.624540042 _51_ RTR  --- 44 cbr 1020 [13a 33 32 800] ------- [50:2 51:0 32 51] [41] 1 0
r 1.624540042 _51_ AGT  --- 44 cbr 1000 [13a 33 32 800] ------- [50:2 51:0 32 51] [41] 1 0
s 1.630000000 _50_ AGT  --- 45 cbr 1000 [0 0 0 0] ------- [50:2 51:0 32 0] [42] 0 0
r 1.630000000 _50_ RTR  --- 45 cbr 1000 [0 0 0 0] ------- [50:2 51:0 32 0] [42] 0 0
SFs 1.630000000 _50_ 45 [50 -> 51] 1(0) to 51 
s 1.630000000 _50_ RTR  --- 45 cbr 1020 [0 0 0 0] ------- [50:2 51:0 32 51] [42] 0 0
r 1.639580042 _51_ RTR  --- 45 cbr 1020 [13a 33 32 800] ------- [50:2 51:0 32 51] [42] 1 0
r 1.639580042 _51_ AGT  --- 45 cbr 1000 [13a 33 32 800] ------- [50:2 51:0 32 51] [42] 1 0
s 1.645000000 _50_ AGT  --- 46 cbr 1000 [0 0 0 0] ------- [50:2 51:0 32 0] [43] 0 0
r 1.645000000 _50_ RTR  --- 46 cbr 1000 [0 0 0 0] ------- [50:2 51:0 32 0] [43] 0 0
SFs 1.645000000 _50_ 46 [50 -> 51] 1(0) to 51 
s 1.645000000 _50_ RTR  --- 46 cbr 1020 [0 0 0 0] ------- [50:2 51:0 32 51] [43] 0 0
r 1.654800042 _51_ RTR  --- 46 cbr 1020 [13a 33 32 800] ------- [50:2 51:0 32 51] [43] 1 0
r 1.654800042 _51_ AGT  --- 46 cbr 1000 [13a 33 32 800] ------- [50:2 51:0 32 51] [43] 1 0
s 1.660000000 _50_ AGT  --- 47 cbr 1000 [0 0 0 0] ------- [50:2 51:0 32 0] [44] 0 0
r 1.660000000 _50_ RTR  --- 47 cbr 1000 [0 0 0 0] ------- [50:2 51:0 32 0] [44] 0 0
SFs 1.660000000 _50_ 47 [50 -> 51] 1(0) to 51 
s 1.660000000 _50_ RTR  --- 47 cbr 1020 [0 0 0 0] ------- [50:2 51:0 32 51] [44] 0 0
r 1.669600042 _51_ RTR  --- 47 cbr 1020 [13a 33 32 800] ------- [50:2 51:0 32 51] [44] 1 0
r 1.669600042 _51_ AGT  --- 47 cbr 1000 [13a 33 32 800] ------- [50:2 51:0 32 51] [44] 1 0
s 1.675000000 _50_ AGT  --- 48 cbr 1000 [0 0 0 0] ------- [50:2 51:0 32 0] [45] 0 0
r 1.675000000 _50_ RTR  --- 48 cbr 1000 [0 0 0 0] ------- [50:2 51:0 32 0] [45] 0 0
SFs 1.675000000 _50_ 48 [50 -> 51] 1(0) to 51 
s 1.675000000 _50_ RTR  --- 48 cbr 1020 [0 0 0 0] ------- [50:2 51:0 32 51] [45] 0 0
r 1.684480042 _51_ RTR  --- 48 cbr 1020 [13a 33 32 800] ------- [50:2 51:0 32 51] [45] 1 0
r 1.684480042 _51_ AGT  --- 48 cbr 1000 [13a 33 32 800] ------- [50:2 51:0 32 51] [45] 1 0
s 1.690000000 _50_ AGT  --- 49 cbr 1000 [0 0 0 0] ------- [50:2 51:0 32 0] [46] 0 0
r 1.690000000 _50_ RTR  --- 49 cbr 1000 [0 0 0 0] ------- [50:2 51:0 32 0] [46] 0 0
SFs 1.690000000 _50_ 49 [50 -> 51] 1(0) to 51 
s 1.690000000 _50_ RTR  --- 49 cbr 1020 [0 0 0 0] ------- [50:2 51:0 32 51] [46] 0 0
r 1.700000042 _51_ RTR  --- 49 cbr 1020 [13a 33 32 800] ------- [50:2 51:0 32 51] [46] 1 0
r 1.700000042 _51_ AGT  --- 49 cbr 1000 [13a 33 32 800] ------- [50:2 51:0 32 51] [46] 1 0
s 1.705000000 _50_ AGT  --- 50 cbr 1000 [0 0 0 0] ------- [50:2 51:0 32 0] [47] 0 0
r 1.705000000 _50_ RTR  --- 50 cbr 1000 [0 0 0 0] ------- [50:2 51:0 32 0] [47] 0 0
SFs 1.705000000 _50_ 50 [50 -> 51] 1(0) to 51 
s 1.705000000 _50_ RTR  --- 50 cbr 1020 [0 0 0 0] ------- [50:2 51:0 32 51] [47] 0 0
r 1.714640042 _51_ RTR  --- 50 cbr 1020 [13a 33 32 800] ------- [50:2 51:0 32 51] [47] 1 0
r 1.714640042 _51_ AGT  --- 50 cbr 1000 [13a 33 32 800] ------- [50:2 51:0 32 51] [47] 1 0
s 1.720000000 _50_ AGT  --- 51 cbr 1000 [0 0 0 0] ------- [50:2 51:0 32 0] [48] 0 0
r 1.720000000 _50_ RTR  --- 51 cbr 1000 [0 0 0 0] ------- [50:2 51:0 32 0] [48] 0 0
SFs 1.720000000 _50_ 51 [50 -> 51] 1(0) to 51 